Name,InChI,CAS Link,smiles,IE / eV,EA / eV,pubchem_smiles,E12,Reaction,Solvent
4'-Fluoroacetophenone,,,CC(=O)C1=CC=C(C=C1)F,,,,-2.51,reduction,ACN
4'-Methylacetophenone,,,CC1=CC=C(C=C1)C(=O)C,,,,-2.54,reduction,ACN
Triphenylsilane,,,C1=CC=C(C=C1)[Si](C2=CC=CC=C2)C3=CC=CC=C3,,,,2.04,oxidation,ACN
Chlorotriphenylsilane,,,C1=CC=C(C=C1)[Si](C2=CC=CC=C2)(C3=CC=CC=C3)Cl,,,,2.03,oxidation,ACN
Nitrobenzene,,,C1=CC=C(C=C1)[N+](=O)[O-],,,,-1.5699999999999998,reduction,ACN
N-Chlorosuccinimide,,,C1CC(=O)N(C1=O)Cl,,,,-0.65,reduction,ACN
"2,4-Dimethyl-1,3-pentadiene",,,CC(=CC(=C)C)C,,,,1.6,oxidation,ACN
(E)-1-Chloro-3-(prop-1-en-1-yl)benzene,,,C/C=C/C1=CC(=CC=C1)Cl,,,,1.5099999999999998,oxidation,ACN
(E)-1-Bromo-3-(prop-1-en-1-yl)benzene,,,C/C=C/C1=CC(=CC=C1)Br,,,,1.54,oxidation,ACN
1-Methylcyclopentene,,,CC1=CCCC1,,,,1.37,oxidation,ACN
1-bromo-4-[(E)-prop-1-enyl]benzene,,,C/C=C/C1=CC=C(C=C1)Br,,,,1.37,oxidation,ACN
1-methyl-3-prop-1-enylbenzene,,,CC=CC1=CC=CC(=C1)C,,,,1.35,oxidation,ACN
1-Chloro-4-(prop-1-en-1-yl)benzene,,,CC=CC1=CC=C(C=C1)Cl,,,,1.35,oxidation,ACN
1-methyl-2-[(E)-prop-1-enyl]benzene,,,C/C=C/C1=CC=CC=C1C,,,,1.3199999999999998,oxidation,ACN
1-tert-butyl-4-(prop-1-en-1-yl)benzene,,,CC=CC1=CC=C(C=C1)C(C)(C)C,,,,1.27,oxidation,ACN
"1,2-bis(prop-1-enyl)benzene",,,CC=CC1=CC=CC=C1C=CC,,,,1.2599999999999998,oxidation,ACN
(E)-1-Methoxy-3-(prop-1-en-1-yl)benzene,,,C/C=C/C1=CC(=CC=C1)OC,,,,1.2200000000000002,oxidation,ACN
"1,1-Diphenylethylene",,,C=C(C1=CC=CC=C1)C2=CC=CC=C2,,,,1.16,oxidation,ACN
"1,4-Dipropylbenzene",,,CCCC1=CC=C(C=C1)CCC,,,,1.0499999999999998,oxidation,ACN
"3,4-Dimethoxystyrene",,,COC1=C(C=C(C=C1)C=C)OC,,,,0.7699999999999999,oxidation,ACN
"3,4-Dihydro-2H-pyran",,,C1CC=COC1,,,,1.13,oxidation,ACN
"1,8-Diazabicyclo[5.4.0]undec-7-ene",,,C1CCC2=NCCCN2CC1,,,,0.9,oxidation,ACN
"N,N-Dimethylaniline",,,CN(C)C1=CC=CC=C1,,,,0.36,oxidation,ACN
"2,6-Dimethylthiophenol",,,CC1=C(C(=CC=C1)C)S,,,,1.06,oxidation,ACN
"1,4-Benzenedithiol",,,C1=CC(=CC=C1S)S,,,,0.7799999999999999,oxidation,ACN
"2,3-Benzofuran",,,C1=CC=C2C(=C1)C=CO2,,,,1.36,oxidation,ACN
"N,N-Dimethylformamide",,,CN(C)C=O,,,,1.88,oxidation,ACN
"1,3-Dimethyl-3,4,5,6-tetrahydro-2(1H)-pyrimidone",,,CN1CCCN(C1=O)C,,,,1.17,oxidation,ACN
"1,2-xylene",,,Cc1ccccc1C,,,,1.8400000000000003,oxidation,ACN
"4-ethenyl-1,2-dimethylbenzene",,,C=Cc1ccc(C)c(C)c1,,,,0.7699999999999999,oxidation,ACN
"1,4-bis(prop-1-enyl)benzene",,,CC=Cc1ccc(C=CC)cc1,,,,1.0499999999999998,oxidation,ACN
"cyclohexa-1,3-diene",,,C1=CCCC=C1,,,,1.16,oxidation,ACN
"1,3-bis(prop-1-enyl)benzene",,,CC=Cc1cccc(C=CC)c1,,,,1.2799999999999998,oxidation,ACN
prop-1-en-2-ylbenzene,,,C=C(C)c1ccccc1,,,,1.5299999999999998,oxidation,ACN
bicyclo[2.2.1]heptane,,,C1CC2CCC1C2,,,,1.8400000000000003,oxidation,ACN
"1,3-di(propan-2-yloxy)benzene",,,CC(C)Oc1cccc(OC(C)C)c1,,,,1.09,oxidation,ACN
"2,6-di(propan-2-yl)aniline",,,CC(C)c1cccc(C(C)C)c1N,,,,0.4599999999999999,oxidation,ACN
1-phenylpyrrolidine,,,c1ccc(N2CCCC2)cc1,,,,0.5,oxidation,ACN
1-chloro-4-iodobenzene,,,Clc1ccc(I)cc1,,,,-2.32,reduction,ACN
1-bromo-4-iodobenzene,,,Brc1ccc(I)cc1,,,,-2.33,reduction,ACN
"1,2-dichloroethane",,,ClCCCl,,,,-2.3,reduction,ACN
2-bromo-1-phenylethanone,,,O=C(CBr)c1ccccc1,,,,-1.84,reduction,ACN
benzoate,,,O=C([O-])c1ccccc1,,,,1.02,oxidation,ACN
piperidin-2-one,,,O=C1CCCCN1,,,,2.2,oxidation,ACN
oxolan-2-one,,,O=C1CCCO1,,,,-2.51,reduction,ACN
"3,5-bis(trifluoromethyl)benzenesulfonyl chloride",,,O=S(=O)(Cl)c1cc(C(F)(F)F)cc(C(F)(F)F)c1,,,,-0.8300000000000001,reduction,ACN
anthracene,,,c1ccc2cc3ccccc3cc2c1,,,,-2.3,reduction,DMF
diphenyldiazene,,,c1ccc(/N=N/c2ccccc2)cc1,,,,-1.7400000000000002,reduction,DMF
diphenylmethanone,,,O=C(c1ccccc1)c1ccccc1,,,,-2.26,reduction,ACN
"2-[4-(dicyanomethylidene)cyclohexa-2,5-dien-1-ylidene]propanedinitrile",,,N#CC(C#N)=c1ccc(=C(C#N)C#N)cc1,,,,-0.25,reduction,ACN
"2-(1,3-dithiol-2-ylidene)-1,3-dithiole",,,C1=CSC(=C2SC=CS2)S1,,,,0.28,oxidation,ACN
n-Pentane,,,CCCCC,,,,2.76,oxidation,ACN
2-Methylpentane,,,CCCC(C)C,,,,2.89,oxidation,ACN
3-Methylpentane,,,CCC(C)CC,,,,2.8000000000000003,oxidation,ACN
"2,2-Dimethylbutane",,,CCC(C)(C)C,,,,3.16,oxidation,ACN
n-Heptane,,,CCCCCCC,,,,2.68,oxidation,ACN
n-Octane,,,CCCCCCCC,,,,2.76,oxidation,ACN
Bicyclo(1.1.0)butane,,,C1C2C1C2,,,,1.2999999999999998,oxidation,ACN
"Bicyclo[1.1.0]butane, 1-methyl-",,,CC12CC1C2,,,,1.08,oxidation,ACN
"1,3-Dimethylbicyclo(1.1.0)butane",,,CC12CC1(C2)C,,,,0.7100000000000001,oxidation,ACN
"2,2-dimethylbicyclo[1.1.0]butane",,,CC1(C2C1C2)C,,,,1.17,oxidation,ACN
"1,2,2-trimethylbicyclo[1.1.0]butane",,,CC1(C2C1(C2)C)C,,,,0.88,oxidation,ACN
"1,2,2,3-tetramethylbicyclo[1.1.0]butane",,,CC1(C2(C1(C2)C)C)C,,,,0.64,oxidation,ACN
"2,2,4,4-tetramethylbicyclo[1.1.0]butane",,,CC1(C2C1C2(C)C)C,,,,1.1800000000000002,oxidation,ACN
"1,2,2,3,4,4-hexamethylbicyclo[1.1.0]butane",,,CC1(C2(C1(C2(C)C)C)C)C,,,,0.5399999999999999,oxidation,ACN
"Tricyclo(2.2.1.02,6)heptane",,,C1C2CC3C1C3C2,,,,1.73,oxidation,ACN
bicyclo[3.1.1]heptane,,,C1CC2CC(C1)C2,,,,1.11,oxidation,ACN
"Pentacyclo[3.3.0.02,4.03,7.06,8]octane",,,C12C3C4C3C5C4C1C25,,,,1.15,oxidation,ACN
"Pentacyclo[4.3.0.02,4.03,8.05,7]nonane",,,C1C2C3C4C1C5C2C5C34,,,,1.23,oxidation,ACN
"Pentacyclo(4.2.0.02,5.03,8.04,7)octane",,,C12C3C4C1C5C2C3C45,,,,1.34,oxidation,ACN
"Pentacyclo(4.3.0.02,5.03,8.04,7)nonane",,,C1C2C3C4C1C5C2C3C45,,,,1.35,oxidation,ACN
2-methylprop-1-ene,,,CC(=C)C,,,,2.53,oxidation,ACN
2-methylbut-1-ene,,,CCC(=C)C,,,,1.85,oxidation,ACN
"buta-1,3-diene",,,C=CC=C,,,,1.91,oxidation,ACN
"2,3-dimethylbuta-1,3-diene",,,CC(=C)C(=C)C,,,,1.7200000000000002,oxidation,ACN
2-Octene,,,CCCCC/C=C/C,,,,2.1100000000000003,oxidation,ACN
"cyclohexa-1,4-diene",,,C1C=CCC=C1,,,,1.48,oxidation,ACN
"bicyclo[2.2.1]hepta-2,5-diene",,,C1C2C=CC1C=C2,,,,1.17,oxidation,ACN
1-Propylbenzene,,,CCCC1=CC=CC=C1,,,,1.91,oxidation,ACN
t-Butylbenzene,,,CC(C)(C)C1=CC=CC=C1,,,,1.81,oxidation,ACN
Cyclohexylbenzene,,,C1CCC(CC1)C2=CC=CC=C2,,,,1.8000000000000005,oxidation,ACN
"1,2,3-trimethylbenzene",,,CC1=C(C(=CC=C1)C)C,,,,1.5300000000000002,oxidation,ACN
"1,2,4-trimethylbenzene",,,CC1=CC(=C(C=C1)C)C,,,,1.5100000000000002,oxidation,ACN
"1,2,3,5-tetramethylbenzene",,,CC1=CC(=C(C(=C1)C)C)C,,,,1.44,oxidation,ACN
"1,2,4,5-tetramethylbenzene",,,CC1=CC(=C(C=C1C)C)C,,,,1.17,oxidation,ACN
"1,2,3,4,5-pentamethylbenzene",,,CC1=CC(=C(C(=C1C)C)C)C,,,,1.16,oxidation,ACN
"1,2,3,4,5,6-hexamethylbenzene",,,CC1=C(C(=C(C(=C1C)C)C)C)C,,,,1.08,oxidation,ACN
cyclopropylbenzene,,,C1CC1C2=CC=CC=C2,,,,1.4500000000000002,oxidation,ACN
1-cyclopropyl-4-methylbenzene,,,CC1=CC=C(C=C1)C2CC2,,,,1.2000000000000002,oxidation,ACN
trans-1-Methyl-2-phenylcyclopropane,,,C[C@@H]1C[C@H]1C2=CC=CC=C2,,,,1.2999999999999998,oxidation,ACN
"(2,2-dimethylcyclopropyl)benzene",,,CC1(CC1C2=CC=CC=C2)C,,,,1.36,oxidation,ACN
"1,2,3,4-tetrahydronaphthalene",,,C1CCC2=CC=CC=C2C1,,,,1.5100000000000002,oxidation,ACN
azulene,,,C1=CC=C2C=CC=C2C=C1,,,,0.5499999999999999,oxidation,ACN
1-methylnaphthalene,,,CC1=CC=CC2=CC=CC=C12,,,,1.06,oxidation,ACN
2-methylnaphthalene,,,CC1=CC2=CC=CC=C2C=C1,,,,1.04,oxidation,ACN
"2,6-dimethylnaphthalene",,,CC1=CC2=C(C=C1)C=C(C=C2)C,,,,0.97,oxidation,ACN
acenaphthylene,,,C1=CC2=C3C(=C1)C=CC3=CC=C2,,,,0.89,oxidation,ACN
n-Propylamine,,,CCCN,,,,1.0,oxidation,ACN
Diethylamine,,,CCNCC,,,,0.89,oxidation,ACN
n-Butylamine,,,CCCCN,,,,1.0,oxidation,ACN
i-Butylamine,,,CC(C)CN,,,,0.99,oxidation,ACN
t-Butylamine,,,CC(C)(C)N,,,,1.0099999999999998,oxidation,ACN
n-Pentylamine,,,CCCCCN,,,,1.06,oxidation,ACN
n-Nonylamine,,,CCCCCCCCCN,,,,1.09,oxidation,ACN
Di-n-propylamine,,,CCCNCCC,,,,0.7999999999999999,oxidation,ACN
Di-n-butylamine,,,CCCCNCCCC,,,,0.7499999999999999,oxidation,ACN
Di-sec-butylamine,,,CCC(C)NC(C)CC,,,,0.7699999999999999,oxidation,ACN
Trimethylamine,,,CN(C)C,,,,0.66,oxidation,ACN
Tri-n-propylamine,,,CCCN(CCC)CCC,,,,0.39,oxidation,ACN
2-(dimethylamino)acetonitrile,,,CN(C)CC#N,,,,0.96,oxidation,ACN
4-methoxyaniline,,,COC1=CC=C(C=C1)N,,,,0.1999999999999999,oxidation,ACN
4-chloroaniline,,,C1=CC(=CC=C1N)Cl,,,,0.5399999999999999,oxidation,ACN
"N,N-dimethyl-1-phenylmethanamine",,,CN(C)CC1=CC=CC=C1,,,,0.61,oxidation,ACN
N-methylaniline,,,CNC1=CC=CC=C1,,,,0.5099999999999999,oxidation,ACN
"N,N-Dimethyl-4-nitroaniline",,,CN(C)C1=CC=C(C=C1)[N+](=O)[O-],,,,0.89,oxidation,ACN
N-ethylaniline,,,CCNC1=CC=CC=C1,,,,0.5299999999999999,oxidation,ACN
"2,3,5,6-tetramethylaniline",,,CC1=CC(=C(C(=C1C)N)C)C,,,,0.28,oxidation,ACN
"1-N,1-N,4-N,4-N-tetramethylbenzene-1,4-diamine",,,CN(C)C1=CC=C(C=C1)N(C)C,,,,-0.22,reduction,ACN
"1-N,1-N,3-N,3-N-tetramethylbenzene-1,3-diamine",,,CN(C)C1=CC(=CC=C1)N(C)C,,,,0.1999999999999999,oxidation,ACN
"1-N,1-N,2-N,2-N-tetramethylbenzene-1,2-diamine",,,CN(C)C1=CC=CC=C1N(C)C,,,,0.16,oxidation,ACN
"3-methoxy-N,N-dimethylaniline",,,CN(C)C1=CC(=CC=C1)OC,,,,0.37,oxidation,ACN
"4-methoxy-N,N-dimethylaniline",,,CN(C)C1=CC=C(C=C1)OC,,,,0.2099999999999999,oxidation,ACN
"2-methoxy-N,N-dimethylaniline",,,CN(C)C1=CC=CC=C1OC,,,,0.36,oxidation,ACN
"2,3,5,6-tetramethylbenzene-1,4-diamine",,,CC1=C(C(=C(C(=C1N)C)C)N)C,,,,-0.3,reduction,ACN
naphthalen-1-amine,,,C1=CC=C2C(=C1)C=CC=C2N,,,,0.2199999999999999,oxidation,ACN
naphthalen-2-amine,,,C1=CC=C2C=C(C=CC2=C1)N,,,,0.3199999999999999,oxidation,ACN
"1,4-diazabicyclo[2.2.2]octane",,,C1CN2CCN1CC2,,,,0.18,oxidation,ACN
"N,N-dimethyl-1-phenylethenamine",,,CN(C)C(=C)C1=CC=CC=C1,,,,0.3099999999999999,oxidation,ACN
CH3OH,,,CO,,,,2.79,oxidation,ACN
ethanol,,,CCO,,,,2.5700000000000003,oxidation,ACN
propan-2-ol,,,CC(C)O,,,,2.56,oxidation,ACN
butan-1-ol,,,CCCCO,,,,2.62,oxidation,ACN
butan-2-ol,,,CCC(C)O,,,,2.6100000000000003,oxidation,ACN
pentan-1-ol,,,CCCCCO,,,,2.52,oxidation,ACN
CH2OH,,,[CH2]O,,,,1.5100000000000002,oxidation,ACN
"1,2,3-trimethoxybenzene",,,COC1=C(C(=CC=C1)OC)OC,,,,1.0299999999999998,oxidation,ACN
"1,2,4-trimethoxybenzene",,,COC1=CC(=C(C=C1)OC)OC,,,,0.7300000000000001,oxidation,ACN
"1,3,5-trimethoxybenzene",,,COC1=CC(=CC(=C1)OC)OC,,,,1.1,oxidation,ACN
1-cyclopropyl-4-methoxybenzene,,,COC1=CC=C(C=C1)C2CC2,,,,0.96,oxidation,ACN
1-ethyl-4-methoxybenzene,,,CCC1=CC=C(C=C1)OC,,,,1.0699999999999998,oxidation,ACN
"1,3-benzodioxole",,,C1OC2=CC=CC=C2O1,,,,1.0299999999999998,oxidation,ACN
"1,3-benzodioxole-5-carboxylic acid",,,C1OC2=C(O1)C=C(C=C2)C(=O)O,,,,1.2400000000000002,oxidation,ACN
"1,3-benzodioxole-5-carbaldehyde",,,C1OC2=C(O1)C=C(C=C2)C=O,,,,1.2599999999999998,oxidation,ACN
2-(4-methoxyphenyl)acetic acid,,,COC1=CC=C(C=C1)CC(=O)O,,,,1.1800000000000002,oxidation,ACN
"3,3-dimethylbutan-2-one",,,CC(=O)C(C)(C)C,,,,2.03,oxidation,ACN
3-methylbutan-2-one,,,CC(C)C(=O)C,,,,2.12,oxidation,ACN
"2,4-dimethylpentan-3-one",,,CC(C)C(=O)C(C)C,,,,2.01,oxidation,ACN
phenyl formate,,,C1=CC=C(C=C1)OC=O,,,,1.58,oxidation,ACN
1-chloro-4-cyclopropylbenzene,,,C1CC1C2=CC=C(C=C2)Cl,,,,1.58,oxidation,ACN
p-Chlorotoluene,,,CC1=CC=C(C=C1)Cl,,,,1.7000000000000002,oxidation,ACN
"N,N-dimethylacetamide",,,CC(=O)N(C)C,,,,1.7000000000000002,oxidation,ACN
"N,N-dimethylbenzamide",,,CN(C)C(=O)C1=CC=CC=C1,,,,1.65,oxidation,ACN
1-(methoxymethyl)piperidine,,,COCN1CCCCC1,,,,1.4900000000000002,oxidation,ACN
methyl piperidine-1-carboxylate,,,COC(=O)N1CCCCC1,,,,1.5700000000000005,oxidation,ACN
trimethyl(prop-2-enyl)silane,,,C[Si](C)(C)CC=C,,,,1.11,oxidation,ACN
trimethyl(3-methylbut-2-enyl)silane,,,CC(=CC[Si](C)(C)C)C,,,,1.0,oxidation,ACN
1-ethoxyethenoxy(trimethyl)silane,,,CCOC(=C)O[Si](C)(C)C,,,,0.89,oxidation,ACN
(1-methoxy-2-methylprop-1-enoxy)-trimethylsilane,,,CC(=C(OC)O[Si](C)(C)C)C,,,,0.5099999999999999,oxidation,ACN
phenysilane,,,C1=CC=C(C=C1)[SiH3],,,,2.0,oxidation,ACN
1-Methyl-4-silylbenzene,,,CC1=CC=C(C=C1)[SiH3],,,,1.88,oxidation,ACN
"(2,4,6-trimethylphenyl)silane",,,CC1=CC(=C(C(=C1)C)[SiH3])C,,,,1.7800000000000002,oxidation,ACN
"N,N-Dimethyl-4-silylaniline",,,CN(C)C1=CC=C(C=C1)[SiH3],,,,0.68,oxidation,ACN
Benzyltrimethylsilane,,,C[Si](C)(C)CC1=CC=CC=C1,,,,0.99,oxidation,ACN
trimethyl(phenylsulfanylmethyl)silane,,,C[Si](C)(C)CSC1=CC=CC=C1,,,,1.09,oxidation,ACN
N-[(Trimethylsilyl)methyl]aniline,,,C[Si](C)(C)CNC1=CC=CC=C1,,,,0.38,oxidation,ACN
propane-1-thiol,,,CCCS,,,,1.08,oxidation,ACN
butane-1-thiol,,,CCCCS,,,,1.2799999999999998,oxidation,ACN
methylsulfanylmethane,,,CSC,,,,1.14,oxidation,ACN
ethylsulfanylethane,,,CCSCC,,,,1.29,oxidation,ACN
methylsulfinylmethane,,,CS(=O)C,,,,1.6100000000000003,oxidation,ACN
"N,N-dimethylmethanesulfonamide",,,CN(C)S(=O)(=O)C,,,,1.6800000000000002,oxidation,ACN
2-tert-butyl-1H-pyrrole,,,CC(C)(C)C1=CC=CN1,,,,0.7300000000000001,oxidation,ACN
4-nitro-1-oxidopyridin-1-ium,,,C1=C[N+](=CC=C1[N+](=O)[O-])[O-],,,,1.7400000000000002,oxidation,ACN
1-oxidopyridin-1-ium-4-carbonitrile,,,C1=C[N+](=CC=C1C#N)[O-],,,,1.88,oxidation,ACN
Nicotinonitrile 1-oxide,,,C1=CC(=C[N+](=C1)[O-])C#N,,,,1.62,oxidation,ACN
4-chloropyridine N-oxide,,,C1=C[N+](=CC=C1Cl)[O-],,,,1.4,oxidation,ACN
1-oxidopyridin-1-ium,,,C1=CC=[N+](C=C1)[O-],,,,1.41,oxidation,ACN
4-methyl-1-oxidopyridin-1-ium,,,CC1=CC=[N+](C=C1)[O-],,,,1.2200000000000002,oxidation,ACN
3-methyl-1-oxidopyridin-1-ium,,,CC1=C[N+](=CC=C1)[O-],,,,1.4,oxidation,ACN
4-methoxy-1-oxidopyridin-1-ium,,,COC1=CC=[N+](C=C1)[O-],,,,0.97,oxidation,ACN
"N,N-dimethyl-1-oxidopyridin-1-ium-4-amine",,,CN(C)C1=CC=[N+](C=C1)[O-],,,,0.37,oxidation,ACN
3-methoxy-1-oxidopyridin-1-ium,,,COC1=C[N+](=CC=C1)[O-],,,,1.33,oxidation,ACN
3-chloro-1-oxidopyridin-1-ium,,,C1=CC(=C[N+](=C1)[O-])Cl,,,,1.5100000000000002,oxidation,ACN
ethyl 1-oxidopyridin-1-ium-3-carboxylate,,,CCOC(=O)C1=C[N+](=CC=C1)[O-],,,,1.5300000000000002,oxidation,ACN
ethyl 1-oxidopyridin-1-ium-4-carboxylate,,,CCOC(=O)C1=CC=[N+](C=C1)[O-],,,,1.5900000000000003,oxidation,ACN
4-ethyl-1-oxidopyridin-1-ium,,,CCC1=CC=[N+](C=C1)[O-],,,,1.1800000000000002,oxidation,ACN
2-(1H-pyrrol-2-yl)-1H-pyrrole,,,C1=CNC(=C1)C2=CC=CN2,,,,0.2099999999999999,oxidation,ACN
2-methyl-5-(1H-pyrrol-2-yl)-1H-pyrrole,,,CC1=CC=C(N1)C2=CC=CN2,,,,0.0699999999999999,oxidation,ACN
2-methyl-5-(5-methyl-1H-pyrrol-2-yl)-1H-pyrrole,,,CC1=CC=C(N1)C2=CC=C(N2)C,,,,-0.0899999999999999,reduction,ACN
2-methyl-1H-benzimidazole,,,CC1=NC2=CC=CC=C2N1,,,,0.99,oxidation,ACN
"1,2,3-Trimethyl-1H-benzimidazolium",,,CC1=[N+](C2=CC=CC=C2N1C)C,,,,1.91,oxidation,ACN
1-Ethylquinolinium,,,CC[N+]1=CC=CC2=CC=CC=C21,,,,2.19,oxidation,ACN
"1,1-dimethylhydrazine",,,CN(C)N,,,,-0.2,reduction,ACN
"1,1,2,2-tetramethylhydrazine",,,CN(C)N(C)C,,,,-0.1099999999999999,reduction,ACN
"1,1,2-trimethyl-2-propylhydrazine",,,CCCN(C)N(C)C,,,,-0.12,reduction,ACN
Butyltrimethylhydrazine,,,CCCCN(C)N(C)C,,,,-0.12,reduction,ACN
"1,1-dimethyl-2,2-dipropylhydrazine",,,CCCN(CCC)N(C)C,,,,-0.14,reduction,ACN
"N,N'-Diethyl-N,N'-dimethylhydrazine",,,CCN(C)N(C)CC,,,,-0.13,reduction,ACN
tert-Butyl trimethylhydrazine,,,CC(C)(C)N(C)N(C)C,,,,0.05,oxidation,ACN
"Hydrazine, 1,2-di-tert-butyl 1,2-dimethyl-",,,CC(C)(C)N(C)N(C)C(C)(C)C,,,,0.13,oxidation,ACN
"1-Pyrrolidinamine, N,N-dimethyl-",,,CN(C)N1CCCC1,,,,-0.27,reduction,ACN
"1-Piperidinamine, N,N-dimethyl-",,,CN(C)N1CCCCC1,,,,-0.0799999999999999,reduction,ACN
N-(N-Pyrrolidinyl)-piperidine,,,C1CCN(CC1)N2CCCC2,,,,-0.24,reduction,ACN
"Hexahydropyrazolo[1,2-a]pyrazole",,,C1CN2CCCN2C1,,,,-0.36,reduction,ACN
"1,2-dimethylpyrazolidine",,,CN1CCCN1C,,,,-0.33,reduction,ACN
"2,3-Diazabicyclo(2.2.2)octane, 2,3-dimethyl-",,,CN1C2CCC(N1C)CC2,,,,-0.29,reduction,ACN
"Pyridazine, hexahydro-1,2,3,6-tetramethyl-, cis-",,,CC1CCC(N(N1C)C)C,,,,-0.24,reduction,ACN
"1,2-dimethylhexahydropyridazine",,,CN1CCCCN1C,,,,-0.21,reduction,ACN
"1,2-Diazacyclohex-4-ene, 1,2-dimethyl-",,,CN1CC=CCN1C,,,,-0.1099999999999999,reduction,ACN
"1,6-Diazabicyclo(4.4.0)decane",,,C1CCN2CCCCN2C1,,,,-0.16,reduction,ACN
"3,4-diethyl-1,3,4-oxadiazolidine",,,CCN1COCN1CC,,,,0.17,oxidation,ACN
"1,2,4,5-Tetraazacyclohexane, 1,2,4,5-tetramethyl-",,,CN1CN(N(CN1C)C)C,,,,-0.0699999999999999,reduction,ACN
"2,3-Diazabicyclo[2.2.1]hept-2-ene",,,C1CC2CC1N=N2,,,,1.58,oxidation,ACN
"7,7-dimethyl-2,3-diazabicyclo[2.2.1]hept-2-ene",,,CC1(C2CCC1N=N2)C,,,,1.46,oxidation,ACN
"1,4-dimethyl-2,3-diazabicyclo[2.2.1]hept-2-ene",,,CC12CCC(C1)(N=N2)C,,,,1.2000000000000002,oxidation,ACN
"2,3-diazabicyclo[2.2.2]oct-2-ene",,,C1CC2CCC1N=N2,,,,1.06,oxidation,ACN
"1,4-Dimethyl-2,3-diaza-bicyclo(2.2.2)oct-2-ene",,,CC12CCC(CC1)(N=N2)C,,,,0.95,oxidation,ACN
"methyl 3,5,5-trimethyl-4,5-dihydro-3H-pyrazole-3-carboxylate",,,CC1(CC(N=N1)(C)C(=O)OC)C,,,,1.66,oxidation,ACN
"3,4-diazatricyclo[4.2.1.02,5]nona-3,7-diene",,,C1C2C=CC1C3C2N=N3,,,,1.91,oxidation,ACN
N-[(E)-diethylaminodiazenyl]-N-ethylethanamine,,,CCN(CC)/N=N/N(CC)CC,,,,-0.0699999999999999,reduction,ACN
"2,2'-Bipyridine",,,C1=CC=NC(=C1)C2=CC=CC=N2,,,,-3.6499999999999995,reduction,ACN
"1,10-phenanthroline",,,C1=CC2=C(C3=C(C=CC=N3)C=C2)N=C1,,,,-3.51,reduction,ACN
"3,3'-Azotoluene",,,CC1=CC(=CC=C1)N=NC2=CC=CC(=C2)C,,,,"-2.8999999999999995,-3.5299999999999994",reduction,ACN
"1,1'-Azonaphthalene",,,C1=CC=C2C(=C1)C=CC=C2N=NC3=CC=CC4=CC=CC=C43,,,,"-2.6499999999999995,-3.2099999999999995",reduction,ACN
"2,2'-Azonaphthalene",,,C1=CC=C2C=C(C=CC2=C1)N=NC3=CC4=CC=CC=C4C=C3,,,,"-2.7399999999999998,-3.2699999999999996",reduction,ACN
"4,4'-Azobiphenyl",,,C1=CC=C(C=C1)C2=CC=C(C=C2)N=NC3=CC=C(C=C3)C4=CC=CC=C4,,,,"-2.7399999999999998,-3.2899999999999996",reduction,ACN
"4,4'-Azopyridine",,,C1=CN=CC=C1N=NC2=CC=NC=C2,,,,"-2.32,-3.05",reduction,ACN
"2,3-Dimethylnaphthalene",,,CC1=CC2=CC=CC=C2C=C1C,,,,"0.993,1.253",oxidation,ACN
Indan,,,C1CC2=CC=CC=C2C1,,,,"1.503,1.933",oxidation,ACN
Tetracene,,,C1=CC=C2C=C3C=C4C=CC=CC4=CC3=CC2=C1,,,,"0.453,1.113",oxidation,ACN
"1,2-Benzanthracene",,,C1=CC=C2C(=C1)C=CC3=CC4=CC=CC=C4C=C32,,,,"0.913,1.003",oxidation,ACN
"1,2,5,6-Dibenzanthracene",,,C1=CC=C2C(=C1)C=CC3=CC4=C(C=CC5=CC=CC=C54)C=C32,,,,"0.913,1.173",oxidation,ACN
Phenoxathiin,,,C1=CC=C2C(=C1)OC3=CC=CC=C3S2,,,,"0.738,1.233",oxidation,ACN
Thianthrene,,,C1=CC=C2C(=C1)SC3=CC=CC=C3S2,,,,"0.778,1.103",oxidation,ACN
"3,4-Dimethoxypropenylbenzene",,,C/C=C/C1=CC(=C(C=C1)OC)OC,,,,"0.600,0.820,1.020",oxidation,ACN
p-Nitro aniline,,,C1=CC(=CC=C1N)[N+](=O)[O-],,,,"0.590,0.760",oxidation,ACN
9-Amino-10-phenylanthracene,,,C1=CC=C(C=C1)C2=C3C=CC=CC3=C(C4=CC=CC=C42)N,,,,"0.083,0.933",oxidation,ACN
N-Methylphenothiazine,,,CN1C2=CC=CC=C2SC3=CC=CC=C31,,,,"0.313,0.883",oxidation,ACN
Persantine,,,C1CCN(CC1)C2=NC(=NC3=C2N=C(N=C3N4CCCCC4)N(CCO)CCO)N(CCO)CCO,,,,"0.133,0.383",oxidation,ACN
"9,10-Dibromoanthracene",,,C1=CC=C2C(=C1)C(=C3C=CC=CC3=C2Br)Br,,,,"1.063,1.383",oxidation,ACN
p-Methoxybenzyl alcohol,,,COC1=CC=C(C=C1)CO,,,,"1.133,1.553",oxidation,ACN
p-Iodobenzyl alcohol,,,C1=CC(=CC=C1CO)I,,,,"1.493,1.823",oxidation,ACN
Cinnamyl alcohol,,,C1=CC=C(C=C1)/C=C/CO,,,,"1.243,1.733",oxidation,ACN
p-Nitrocinnamyl alcohol,,,C1=CC(=CC=C1/C=C/CO)[N+](=O)[O-],,,,"1.273,1.683",oxidation,ACN
Hydrazobenzene,,,C1=CC=C(C=C1)NNC2=CC=CC=C2,,,,"0.093,1.263",oxidation,ACN
"4,4'-Dichlorohydrazobenzene",,,C1=CC(=CC=C1NNC2=CC=C(C=C2)Cl)Cl,,,,"0.173,1.353",oxidation,ACN
"5,10-dihydro-5,10-dimethylphenazine",,,CN1C2=CC=CC=C2N(C3=CC=CC=C31)C,,,,"-0.29,0.5",oxidation,ACN
(E)-Stilbene,InChI=1S/C14H12/c1-3-7-13(8-4-1)11-12-14-9-5-2-6-10-14/h1-12H/b12-11+,Copy,,7.656,0.39,C1=CC=C(C=C1)/C=C/C2=CC=CC=C2,,,
"1,4-Dioxane",InChI=1S/C4H8O2/c1-2-6-4-3-5-1/h1-4H2,Copy,,9.19,,C1COCCO1,2.12,oxidation,ACN
"1,4-Naphthalenedione",InChI=1S/C10H6O2/c11-9-5-6-10(12)8-4-2-1-3-7(8)9/h1-6H,Copy,,9.5,1.81,C1=CC=C2C(=O)C=CC(=O)C2=C1,,,
1-Butene,"InChI=1S/C4H8/c1-3-4-2/h3H,1,4H2,2H3",Copy,,9.55,,CCC=C,2.54,oxidation,ACN
1-Octene,"InChI=1S/C8H16/c1-3-5-7-8-6-4-2/h3H,1,4-8H2,2H3",Copy,,9.43,,CCCCCCC=C,2.58,oxidation,ACN
1-Pentene,"InChI=1S/C5H10/c1-3-5-4-2/h3H,1,4-5H2,2H3",Copy,,9.49,,CCCC=C,2.62,oxidation,ACN
"9,10-Anthracenedione",InChI=1S/C14H8O2/c15-13-9-5-1-2-6-10(9)14(16)12-8-4-3-7-11(12)13/h1-8H,Copy,,9.25,1.591,C1=CC=C2C(=C1)C(=O)C3=CC=CC=C3C2=O,,,
Acetophenone,"InChI=1S/C8H8O/c1-7(9)8-5-3-2-4-6-8/h2-6H,1H3",Copy,,9.28,0.3339,CC(=O)C1=CC=CC=C1,-2.49,reduction,ACN
Adamantane,"InChI=1S/C10H16/c1-7-2-9-4-8(1)5-10(3-7)6-9/h7-10H,1-6H2",Copy,,9.25,,C1C2CC3CC1CC(C2)C3,2.3000000000000003,oxidation,ACN