Name,InChI,CAS Link,smiles,IE / eV,EA / eV,pubchem_smiles,E12,Reaction,Solvent
Aniline,"InChI=1S/C6H7N/c7-6-4-2-1-3-5-6/h1-5H,7H2",Copy,,7.72,,C1=CC=C(C=C1)N,0.57,oxidation,ACN
Anisole,"InChI=1S/C7H8O/c1-8-7-5-3-2-4-6-7/h2-6H,1H3",Copy,,8.2,,COC1=CC=CC=C1,1.4300000000000002,oxidation,ACN
Anthracene,InChI=1S/C14H10/c1-2-6-12-10-14-8-4-3-7-13(14)9-11(12)5-1/h1-10H,Copy,,7.439,0.53,C1=CC=C2C=C3C=CC=CC3=CC2=C1,,,
Azulene,InChI=1S/C10H8/c1-2-5-9-7-4-8-10(9)6-3-1/h1-8H,Copy,,7.42,0.79,C1=CC=C2C=CC=C2C=C1,,,
Benz[a]anthracene,InChI=1S/C18H12/c1-2-7-15-12-18-16(11-14(15)6-1)10-9-13-5-3-4-8-17(13)18/h1-12H,Copy,,"7.45,7.60",0.39,C1=CC=C2C(=C1)C=CC3=CC4=CC=CC=C4C=C32,,,
Benzaldehyde,InChI=1S/C7H6O/c8-6-7-4-2-1-3-5-7/h1-6H,Copy,,9.5,0.4293,C1=CC=C(C=C1)C=O,-2.31,reduction,ACN
Benzene,InChI=1S/C6H6/c1-2-4-6-5-3-1/h1-6H,Copy,,9.24378,,C1=CC=CC=C1,2.02,oxidation,ACN
"Benzene, 1-methyl-3-nitro-","InChI=1S/C7H7NO2/c1-6-3-2-4-7(5-6)8(9)10/h2-5H,1H3",Copy,,9.5,0.99,CC1=CC(=CC=C1)[N+](=O)[O-],,,
"Benzene, 1-methyl-4-nitro-","InChI=1S/C7H7NO2/c1-6-2-4-7(5-3-6)8(9)10/h2-5H,1H3",Copy,,9.46,0.95,CC1=CC=C(C=C1)[N+](=O)[O-],,,
"Benzene, bromopentafluoro-",InChI=1S/C6BrF5/c7-1-2(8)4(10)6(12)5(11)3(1)9,Copy,,9.62,1.15,C1(=C(C(=C(C(=C1F)F)Br)F)F)F,,,
"Benzene, chloropentafluoro-",InChI=1S/C6ClF5/c7-1-2(8)4(10)6(12)5(11)3(1)9,Copy,,9.72,0.75,C1(=C(C(=C(C(=C1F)F)Cl)F)F)F,,,
"Benzene, hexachloro-",InChI=1S/C6Cl6/c7-1-2(8)4(10)6(12)5(11)3(1)9,Copy,,9.0,0.92,C1(=C(C(=C(C(=C1Cl)Cl)Cl)Cl)Cl)Cl,,,
"Benzene, hexafluoro-",InChI=1S/C6F6/c7-1-2(8)4(10)6(12)5(11)3(1)9,Copy,,9.9,0.53,C1(=C(C(=C(C(=C1F)F)F)F)F)F,,,
"Benzene, nitro-",InChI=1S/C6H5NO2/c8-7(9)6-4-2-1-3-5-6/h1-5H,Copy,,9.94,1.0,C1=CC=C(C=C1)[N+](=O)[O-],,,
Benzo[a]pyrene,InChI=1S/C20H12/c1-2-7-17-15(4-1)12-16-9-8-13-5-3-6-14-10-11-18(17)20(16)19(13)14/h1-12H,Copy,,7.12,0.815,C1=CC=C2C3=C4C(=CC2=C1)C=CC5=C4C(=CC=C5)C=C3,,,
Benzo[ghi]perylene,InChI=1S/C22H12/c1-3-13-7-9-15-11-12-16-10-8-14-4-2-6-18-17(5-1)19(13)21(15)22(16)20(14)18/h1-12H,Copy,,7.17,0.42,C1=CC2=C3C(=C1)C4=CC=CC5=C4C6=C(C=C5)C=CC(=C36)C=C2,,,
Benzonitrile,InChI=1S/C7H5N/c8-6-7-4-2-1-3-5-7/h1-5H,Copy,,9.73,0.26,C1=CC=C(C=C1)C#N,-2.81,reduction,ACN
Benzophenone,InChI=1S/C13H10O/c14-13(11-7-3-1-4-8-11)12-9-5-2-6-10-12/h1-10H,Copy,,9.08,0.62,C1=CC=C(C=C1)C(=O)C2=CC=CC=C2,,,
Benzyl radical,"InChI=1S/C7H7/c1-7-5-3-2-4-6-7/h2-6H,1H2",Copy,,7.242,0.912,[CH2]C1=CC=CC=C1,,,
Biphenylene,InChI=1S/C12H8/c1-2-6-10-9(5-1)11-7-3-4-8-12(10)11/h1-8H,Copy,,7.58,0.89,C1=CC2=C3C=CC=CC3=C2C=C1,,,
Bromotrifluoromethane,"InChI=1S/CBrF3/c2-1(3,4)5",Copy,,11.4,0.91,C(F)(F)(F)Br,,,
Carbon Tetrachloride,"InChI=1S/CCl4/c2-1(3,4)5",Copy,,11.47,0.8,C(Cl)(Cl)(Cl)Cl,,,
Carbon disulfide,InChI=1S/CS2/c2-1-3,Copy,,10.073,0.5525,C(=S)=S,,,
Carbon monosulfide,InChI=1S/CS/c1-2,Copy,,11.33,0.205,[C-]#[S+],,,
Carbonyl sulfide,InChI=1S/COS/c2-1-3,Copy,,11.18,0.46,C(=O)=S,,,
Chrysene,InChI=1S/C18H12/c1-3-7-15-13(5-1)9-11-18-16-8-4-2-6-14(16)10-12-17(15)18/h1-12H,Copy,,"7.6,8.0",0.32,C1=CC=C2C(=C1)C=CC3=C2C=CC4=CC=CC=C43,"1.133,1.183",oxidation,ACN
Coronene,InChI=1S/C24H12/c1-2-14-5-6-16-9-11-18-12-10-17-8-7-15-4-3-13(1)19-20(14)22(16)24(18)23(17)21(15)19/h1-12H,Copy,,7.29,0.47,C1=CC2=C3C4=C1C=CC5=C4C6=C(C=C5)C=CC7=C6C3=C(C=C2)C=C7,,,
Cyclobutane,InChI=1S/C4H8/c1-2-4-3-1/h1-4H2,Copy,,9.8,,C1CCC1,1.52,oxidation,ACN
Cyclohexanone,InChI=1S/C6H10O/c7-6-4-2-1-3-5-6/h1-5H2,Copy,,9.16,,C1CCC(=O)CC1,-2.71,reduction,ACN
Cyclohexene,"InChI=1S/C6H10/c1-2-4-6-5-3-1/h1-2H,3-6H2",Copy,,8.95,,C1CCC=CC1,1.99,oxidation,ACN
Cyclopentene,"InChI=1S/C5H8/c1-2-4-5-3-1/h1-2H,3-5H2",Copy,,9.01,,C1CC=CC1,1.94,oxidation,ACN
"Dibenz[a,h]anthracene",InChI=1S/C22H14/c1-3-7-19-15(5-1)9-11-17-14-22-18(13-21(17)19)12-10-16-6-2-4-8-20(16)22/h1-14H,Copy,,7.39,0.595,C1=CC=C2C(=C1)C=CC3=CC4=C(C=CC5=CC=CC=C54)C=C32,,,
Dicarbon,InChI=1S/C2/c1-2,Copy,,11.4,3.273,C#C,,,
Dichlorodifluoromethane,"InChI=1S/CCl2F2/c2-1(3,4)5",Copy,,12.0,0.4,C(F)(F)(Cl)Cl,,,
Diphenylacetylene,InChI=1S/C14H10/c1-3-7-13(8-4-1)11-12-14-9-5-2-6-10-14/h1-10H,Copy,,7.94,,C1=CC=C(C=C1)C#CC2=CC=CC=C2,1.46,oxidation,ACN
Diphenylamine,"InChI=1S/C12H11N/c1-3-7-11(8-4-1)13-12-9-5-2-6-10-12/h1-10,13H",Copy,,7.19,,C1=CC=C(C=C1)NC2=CC=CC=C2,0.54,oxidation,ACN
Ethylbenzene,"InChI=1S/C8H10/c1-2-8-6-4-3-5-7-8/h3-7H,2H2,1H3",Copy,,8.77,,CCC1=CC=CC=C1,1.9,oxidation,ACN
Ethylene,InChI=1S/C2H4/c1-2/h1-2H2,Copy,,10.5138,,C=C,2.78,oxidation,ACN
Ethynyl radical,InChI=1S/C2H/c1-2/h1H,Copy,,11.61,2.9689,C#[C],,,
Fluoromethylene,InChI=1S/CHF/c1-2/h1H,Copy,,10.06,0.542,,,,
Formyl radical,InChI=1S/CHO/c1-2/h1H,Copy,,8.12,0.313,[CH]=O,,,
Furan,InChI=1S/C4H4O/c1-2-4-5-3-1/h1-4H,Copy,,8.88,,C1=COC=C1,1.56,oxidation,ACN
Hydroquinone,"InChI=1S/C6H6O2/c7-5-1-2-6(8)4-3-5/h1-4,7-8H",Copy,,7.94,,C1=CC(=CC=C1O)O,0.7599999999999999,oxidation,ACN
Indene,"InChI=1S/C9H8/c1-2-5-9-7-3-6-8(9)4-1/h1-6H,7H2",Copy,,8.14,,C1C=CC2=CC=CC=C21,1.2799999999999998,oxidation,ACN
Indole,"InChI=1S/C8H7N/c1-2-4-8-7(3-1)5-6-9-8/h1-6,9H",Copy,,7.7602,0.00351,C1=CC=C2C(=C1)C=CN2,0.7799999999999999,oxidation,ACN
Isocyanato radical,InChI=1S/CNO/c2-1-3,Copy,,11.76,3.609,C(=[N])=O,,,
Mesitylene,"InChI=1S/C9H12/c1-7-4-8(2)6-9(3)5-7/h4-6H,1-3H3",Copy,,8.4,,CC1=CC(=CC(=C1)C)C,1.69,oxidation,ACN
"Methane, iodo-",InChI=1S/CH3I/c1-2/h1H3,Copy,,9.54,0.11,CI,,,
"Methane, nitro-",InChI=1S/CH3NO2/c1-2(3)4/h1H3,Copy,,11.08,0.172,C[N+](=O)[O-],,,
"Methane, trifluoroiodo-","InChI=1S/CF3I/c2-1(3,4)5",Copy,,10.28,1.57,C(F)(F)(F)I,,,
Methyl radical,InChI=1S/CH3/h1H3,Copy,,9.84,0.08,[CH3],,,
Methylene,InChI=1S/CH2/h1H2,Copy,,10.396,0.652,[CH2],,,
"Methylene, difluoro-",InChI=1S/CF2/c2-1-3,Copy,,11.44,0.18,,,,
Methylidyne,InChI=1S/CH/h1H,Copy,,10.64,1.26,,,,
Naphthacene,InChI=1S/C18H12/c1-2-6-14-10-18-12-16-8-4-3-7-15(16)11-17(18)9-13(14)5-1/h1-12H,Copy,,6.97,1.058,C1=CC=C2C=C3C=C4C=CC=CC4=CC3=CC2=C1,,,
Naphthalene,InChI=1S/C10H8/c1-2-6-10-8-4-3-7-9(10)5-1/h1-8H,Copy,,8.144,,C1=CC=C2C=CC=CC2=C1,1.2599999999999998,oxidation,ACN
Pentacene,InChI=1S/C22H14/c1-2-6-16-10-20-14-22-12-18-8-4-3-7-17(18)11-21(22)13-19(20)9-15(16)5-1/h1-14H,Copy,,6.63,1.392,C1=CC=C2C=C3C=C4C=C5C=CC=CC5=CC4=CC3=CC2=C1,,,
Perylene,InChI=1S/C20H12/c1-5-13-6-2-11-17-18-12-4-8-14-7-3-10-16(20(14)18)15(9-1)19(13)17/h1-12H,Copy,,6.96,0.973,C1=CC2=C3C(=C1)C4=CC=CC5=C4C(=CC=C5)C3=CC=C2,,,
Phenanthrene,InChI=1S/C14H10/c1-3-7-13-11(5-1)9-10-12-6-2-4-8-14(12)13/h1-10H,Copy,,7.891,-0.01,C1=CC=C2C(=C1)C=CC3=CC=CC=C32,,,
Phenol,"InChI=1S/C6H6O/c7-6-4-2-1-3-5-6/h1-5,7H",Copy,,8.49,,C1=CC=C(C=C1)O,1.25,oxidation,ACN
Picene,InChI=1S/C22H14/c1-3-7-17-15(5-1)9-11-21-19(17)13-14-20-18-8-4-2-6-16(18)10-12-22(20)21/h1-14H,Copy,,7.51,0.542,C1=CC=C2C(=C1)C=CC3=C2C=CC4=C3C=CC5=CC=CC=C54,,,
Piperidine,"InChI=1S/C5H11N/c1-2-4-6-5-3-1/h6H,1-5H2",Copy,,8.03,,C1CCNCC1,0.5599999999999999,oxidation,ACN
Propanal,"InChI=1S/C3H6O/c1-2-3-4/h3H,2H2,1H3",Copy,,9.96,0.000999,CCC=O,,,
Propanenitrile,"InChI=1S/C3H5N/c1-2-3-4/h2H2,1H3",Copy,,11.85,0.015092,CCC#N,,,
Propene,"InChI=1S/C3H6/c1-3-2/h3H,1H2,2H3",Copy,,9.73,,CC=C,2.58,oxidation,ACN
Propiolonitrile,InChI=1S/C3HN/c1-2-3-4/h1H,Copy,,11.62,1.04,C#CC#N,,,
Pyrene,InChI=1S/C16H10/c1-3-11-7-9-13-5-2-6-14-10-8-12(4-1)15(11)16(13)14/h1-10H,Copy,,7.426,0.406,C1=CC2=C3C(=C1)C=CC4=CC=CC(=C43)C=C2,"0.973,1.153",oxidation,ACN
Pyridine,InChI=1S/C5H5N/c1-2-4-6-5-3-1/h1-5H,Copy,,9.26,,C1=CC=NC=C1,1.7600000000000002,oxidation,ACN
Pyrrole,InChI=1S/C4H5N/c1-2-4-5-3-1/h1-5H,Copy,,8.207,,C1=CNC=C1,0.7000000000000001,oxidation,ACN
Quinazoline,InChI=1S/C8H6N2/c1-2-4-8-7(3-1)5-9-6-10-8/h1-6H,Copy,,9.03,0.58,C1=CC=C2C(=C1)C=NC=N2,,,
Quinoline,InChI=1S/C9H7N/c1-2-6-9-8(4-1)5-3-7-10-9/h1-7H,Copy,,8.63,,C1=CC=C2C(=C1)C=CC=N2,1.7600000000000002,oxidation,ACN
Quinoxaline,InChI=1S/C8H6N2/c1-2-4-8-7(3-1)9-5-6-10-8/h1-6H,Copy,,9.01,0.71,C1=CC=C2C(=C1)N=CC=N2,,,
Styrene,"InChI=1S/C8H8/c1-2-8-6-4-3-5-7-8/h2-7H,1H2",Copy,,8.464,,C=CC1=CC=CC=C1,1.59,oxidation,ACN
Tetrachloroethylene,InChI=1S/C2Cl4/c3-1(4)2(5)6,Copy,,9.326,0.64,C(=C(Cl)Cl)(Cl)Cl,,,
Thiophene,InChI=1S/C4H4S/c1-2-4-5-3-1/h1-4H,Copy,,8.86,,C1=CSC=C1,1.54,oxidation,ACN
Toluene,"InChI=1S/C7H8/c1-7-5-3-2-4-6-7/h2-6H,1H3",Copy,,8.828,,CC1=CC=CC=C1,1.98,oxidation,ACN
Trichloroethylene,InChI=1S/C2HCl3/c3-1-2(4)5/h1H,Copy,,9.46,0.4,C(=C(Cl)Cl)Cl,,,
Trichloromethane,InChI=1S/CHCl3/c2-1(3)4/h1H,Copy,,11.37,0.62,C(Cl)(Cl)Cl,,,
Trichloromethyl radical,InChI=1S/CCl3/c2-1(3)4,Copy,,8.109,2.16,[C](Cl)(Cl)Cl,,,
Triethylamine,"InChI=1S/C6H15N/c1-4-7(5-2)6-3/h4-6H2,1-3H3",Copy,,7.53,,CCN(CC)CC,0.4499999999999999,oxidation,ACN
Triphenylene,InChI=1S/C18H12/c1-2-8-14-13(7-1)15-9-3-4-11-17(15)18-12-6-5-10-16(14)18/h1-12H,Copy,,7.87,0.285,C1=CC=C2C(=C1)C3=CC=CC=C3C4=CC=CC=C24,"1.373,1.463",oxidation,ACN
n-Hexane,"InChI=1S/C6H14/c1-3-5-6-4-2/h3-6H2,1-2H3",Copy,,10.13,,CCCCCC,2.72,oxidation,ACN
p-Benzoquinone,InChI=1S/C6H4O2/c7-5-1-2-6(8)4-3-5/h1-4H,Copy,,10.0,1.85,C1=CC(=O)C=CC1=O,,,
p-Xylene,"InChI=1S/C8H10/c1-7-3-5-8(2)6-4-7/h3-6H,1-2H3",Copy,,8.44,0.001519,CC1=CC=C(C=C1)C,1.5,oxidation,ACN