,Name,smiles,IE / eV,EA / eV,pubchem_smiles,E12,Reaction,Solvent
0,Isoxazole,c1cnoc1,10.0,,C1=CON=C1,,,
1,Isopropyl acetate,CC(=O)OC(C)C,9.99,,CC(C)OC(=O)C,,,
2,1-Butanol,CCCCO,9.99,,CCCCO,,,
3,"Ethene, chloro-",C=CCl,9.99,,C=CCl,,,
4,Ethyl Acetate,CCOC(C)=O,10.01,,CCOC(=O)C,,,
5,"Butane, 2-bromo-",CCC(C)Br,10.01,,CCC(C)Br,,,
6,"1-Propanol, 2-methyl-",CC(C)CO,10.02,,CC(C)CO,,,
7,Dimethyl ether,COC,10.025,,COC,,,
8,1-Hexyne,C#CCCCC,10.03,,CCCCC#C,,,
9,Allyl chloride,C=CCCl,10.05,,C=CCCl,,,
10,"Propane, 1-bromo-2-methyl-",CC(C)CBr,10.09,,CC(C)CBr,,,
11,"Pentane, 1-bromo-",CCCCCBr,10.1,,CCCCCBr,,,
12,1-Pentyne,C#CCCC,10.1,,CCCC#C,,,
13,"Propane, 2-bromo-",CC(C)Br,10.1,,CC(C)Br,,,
14,2-Propenal,C=CC=O,10.11,,C=CC=O,,,
15,"Butane, 1-bromo-",CCCCBr,10.13,,CCCCBr,,,
16,"Ethene, tetrafluoro-",FC(F)=C(F)F,10.14,,C(=C(F)F)(F)F,,,
17,Methyl propionate,CCC(=O)OC,10.15,,CCC(=O)OC,,,
18,Formamide,N=CO,10.16,,C(=O)N,,,
19,Butanoic acid,CCCC(=O)O,10.17,,CCCC(=O)O,,,
20,Isopropyl Alcohol,CC(C)O,10.17,,CC(C)O,,,
21,"Propane, 1-bromo-",CCCBr,10.18,,CCCBr,,,
22,1-Butyne,C#CCC,10.18,,CCC#C,,,
23,3-Butenenitrile,C=CCC#N,10.2,,C=CCC#N,,,
24,1-Propanol,CCCO,10.22,,CCCO,,,
25,Propylene oxide,CC1CO1,10.22,,CC1CO1,,,
26,Acetaldehyde,CC=O,10.229,,CC=O,,,
27,"Propanoic acid, 2-methyl-",CC(C)C(=O)O,10.24,,CC(C)C(=O)O,,,
28,"Acetic acid, methyl ester",COC(C)=O,10.25,,CC(=O)OC,,,
29,Pentane,CCCCC,10.28,,CCCCC,,,
30,Ethyl bromide,CCBr,10.29,,CCBr,,,
31,"Ethene, 1,1-difluoro-",C=C(F)F,10.29,,C=C(F)F,,,
32,Carbon tetrabromide,BrC(Br)(Br)Br,10.31,,C(Br)(Br)(Br)Br,,,
33,"Acetylene, bromo-",C#CBr,10.31,,C#CBr,,,
34,"Butane, 2-methyl-",CCC(C)C,10.32,,CCC(C)C,,,
35,Cyclopentane,C1CCCC1,10.33,,C1CCCC1,,,
36,"Ethane, 1,2-dibromo-",BrCCBr,10.35,,C(CBr)Br,,,
37,Propyne,C#CC,10.36,,CC#C,,,
38,"Ethene, fluoro-",C=CF,10.36,,C=CF,,,
39,"Methane, dibromo-",BrCBr,10.41,,C(Br)Br,,,
40,Propanoic acid,CCC(=O)O,10.44,,CCC(=O)O,,,
41,Ethanol,CCO,10.48,,CCO,,,
42,"Methane, tribromo-",BrC(Br)Br,10.5,,C(Br)(Br)Br,,,
43,"Formic acid, butyl ester",CCCCOC=O,10.52,,CCCCOC=O,,,
44,Butane,CCCC,10.53,,CCCC,,,
45,"Formic acid, propyl ester",CCCOC=O,10.54,,CCCOC=O,,,
46,"Methane, bromo-",CBr,10.541,,CBr,,,
47,Ethylene oxide,C1CO1,10.56,,C1CO1,,,
48,"Ethane, 1-bromo-2-chloro-",ClCCBr,10.57,,C(CBr)Cl,,,
49,"Butane, 2-chloro-",CCC(C)Cl,10.57,,CCC(C)Cl,,,
50,"Methane, dibromochloro-",ClC(Br)Br,10.59,,C(Cl)(Br)Br,,,
51,"Propene, hexafluoro-",FC(F)=C(F)C(F)(F)F,10.6,,C(=C(F)F)(C(F)(F)F)F,,,
52,"Ethyne, chloro-",C#CCl,10.6,,C#CCl,,,
53,Ethyl formate,CCOC=O,10.61,,CCOC=O,,,
54,"Butane, 1-chloro-",CCCCCl,10.64,,CCCCCl,,,
55,Acetic acid,CC(=O)O,10.65,,CC(=O)O,,,
56,Isobutane,CC(C)C,10.68,,CC(C)C,,,
57,"Propane, 1-chloro-2-methyl-",CC(C)CCl,10.73,,CC(C)CCl,,,
58,"Propane, 2-nitro-",CC(C)[N+](=O)[O-],10.74,,CC(C)[N+](=O)[O-],,,
59,"Methane, bromochloro-",ClCBr,10.77,,C(Cl)Br,,,
60,"Propane, 1-nitro-",CCC[N+](=O)[O-],10.78,,CCC[N+](=O)[O-],,,
61,"Propane, 2-chloro-",CC(C)Cl,10.78,,CC(C)Cl,,,
62,"Propane, 1,2-dichloro-",CC(Cl)CCl,10.8,,CC(CCl)Cl,,,
63,n-Propyl chloride,CCCCl,10.8,,CCCCl,,,
64,Acetyl chloride,CC(=O)Cl,10.82,,CC(=O)Cl,,,
65,"Silane, chlorotrimethyl-",C[Si](C)(C)Cl,10.83,,C[Si](C)(C)Cl,,,
66,Methyl Alcohol,CO,10.84,,CO,,,
67,Formaldehyde,C=O,10.88,,C=O,,,
68,"Propane, 1,3-dichloro-",ClCCCCl,10.89,,C(CCl)CCl,,,
69,Nitrosyl chloride,O=NCl,10.9,,N(=O)Cl,,,
70,"Ethane, nitro-",CC[N+](=O)[O-],10.9,,CC[N+](=O)[O-],,,
71,2-Propenenitrile,C=CC#N,10.91,,C=CC#N,,,
72,Dichlorine monoxide,ClOCl,10.91,,O(Cl)Cl,,,
73,Propane,CCC,10.94,,CCC,,,
74,Ethyl Chloride,CCCl,10.98,,CCCl,,,
75,"Methane, dibromodifluoro-",FC(F)(Br)Br,11.03,,C(F)(F)(Br)Br,,,
76,"Ethane, 1,1-dichloro-",CC(Cl)Cl,11.04,,CC(Cl)Cl,,,
77,"Ethane, 1,2-dichloro-",ClCCCl,11.07,,C(CCl)Cl,,,
78,Chloromethane,CCl,11.26,,CCl,,,
79,Formic acid,O=CO,11.33,,C(=O)O,,,
80,Methylene chloride,ClCCl,11.33,,C(Cl)Cl,,,
81,Acetylene,C#C,11.4,,C#C,,,
82,Thiazyl fluoride,Fc1nccs1,11.51,,N#SF,,,
83,Ethane,CC,11.52,,CC,,,
84,"2-Propanone, 1,1,1,3,3,3-hexafluoro-",O=C(C(F)(F)F)C(F)(F)F,11.57,,C(=O)(C(F)(F)F)C(F)(F)F,,,
85,Isocyanic acid,N=C=O,11.595,,C(=N)=O,,,
86,Trichloromonofluoromethane,FC(Cl)(Cl)Cl,11.68,,C(F)(Cl)(Cl)Cl,,,
87,"Ethane, 1,1-difluoro-",CC(F)F,11.865,,CC(F)F,,,
88,Acetonitrile,CC#N,12.2,,CC#N,,,
89,Difluorochloromethane,FC(F)Cl,12.28,,C(F)(F)Cl,,,
90,Cyanogen chloride,N#CCl,12.36,,C(#N)Cl,,,
91,Methyl fluoride,CF,12.5,,CF,,,
92,Chlorotrifluoromethane,FC(F)(F)Cl,12.6,,C(F)(F)(F)Cl,,,
93,Methane,C,12.61,,C,,,
94,Propanedinitrile,N#CCC#N,12.8,,C(C#N)C#N,,,
95,Carbonic difluoride,O=C(F)F,13.04,,C(=O)(F)F,,,
96,Hydrogen cyanide,C#N,13.6,,C#N,,,
97,Carbon dioxide,O=C=O,13.777,,C(=O)=O,,,
98,"Acetonitrile, trifluoro-",N#CC(F)(F)F,13.93,,C(#N)C(F)(F)F,,,
99,Carbon monoxide,[C-]#[O+],14.014,,[C-]#[O+],,,
100,"1,4-Benzenediamine",Nc1ccc(N)cc1,6.87,,C1=CC(=CC=C1N)N,,,
101,"Benzenamine, N,N,4-trimethyl-",Cc1ccc(N(C)C)cc1,6.93,,CC1=CC=C(C=C1)N(C)C,,,
102,o-Toluidine,Cc1ccccc1N,7.47,,CC1=CC=CC=C1N,,,
103,"Indole, 3-methyl-",Cc1c[nH]c2ccccc12,7.514,,CC1=CNC2=CC=CC=C12,,,
104,"Benzenamine, 3-methyl-",Cc1cccc(N)c1,7.54,,CC1=CC(=CC=C1)N,,,
105,"Benzene, 1,4-dimethoxy-",COc1ccc(OC)cc1,7.56,,COC1=CC=C(C=C1)OC,,,
106,"1,2-Ethanediamine, N,N,N',N'-tetramethyl-",CN(C)CCN(C)C,7.59,,CN(C)CCN(C)C,,,
107,Dibenzo-p-dioxin,c1ccc2c(c1)Oc1ccccc1O2,7.598,,C1=CC=C2C(=C1)OC3=CC=CC=C3O2,,,
108,"1H-Indole, 2-methyl-",Cc1cc2ccccc2[nH]1,7.671,,CC1=CC2=CC=CC=C2N1,,,
109,"Benzenemethanamine, N,N-dimethyl-",CN(C)Cc1ccccc1,7.69,,CN(C)CC1=CC=CC=C1,,,
110,"Hydrazine, methyl-",CNN,7.7,,CNN,,,
111,"1H-Indole, 7-methyl-",Cc1cccc2cc[nH]c12,7.714,,CC1=C2C(=CC=C1)C=CN2,,,
112,"Methanediamine, N,N,N',N'-tetramethyl-",CN(C)CN(C)C,7.74,,CN(C)CN(C)C,,,
113,Acenaphthene,c1cc2c3c(cccc3c1)CC2,7.75,,C1CC2=CC=CC3=C2C1=CC=C3,,,
114,1-Naphthalenol,Oc1cccc2ccccc12,7.76,,C1=CC=C2C(=C1)C=CC=C2O,,,
115,p-Terphenyl,c1ccc(-c2ccc(-c3ccccc3)cc2)cc1,7.8,,C1=CC=C(C=C1)C2=CC=C(C=C2)C3=CC=CC=C3,,,
116,Diphenyl sulfide,c1ccc(Sc2ccccc2)cc1,7.85,,C1=CC=C(C=C1)SC2=CC=CC=C2,,,
117,"Methylamine, N,N-dimethyl-",CN(C)C,7.85,,CN(C)C,,,
118,"Benzene, hexamethyl-",Cc1c(C)c(C)c(C)c(C)c1C,7.85,,CC1=C(C(=C(C(=C1C)C)C)C)C,,,
119,2-Naphthalenol,Oc1ccc2ccccc2c1,7.87,,C1=CC=C2C=C(C=CC2=C1)O,,,
120,"Benzene, 1-methoxy-4-methyl-",COc1ccc(C)cc1,7.9,,CC1=CC=C(C=C1)OC,,,
121,2-Methylpiperidine,CC1CCCCN1,7.9,,CC1CCCCN1,,,
122,Fluoranthene,c1ccc2c(c1)-c1cccc3cccc-2c13,7.9,,C1=CC=C2C(=C1)C3=CC=CC4=C3C2=CC=C4,,,
123,Fluorene,c1ccc2c(c1)Cc1ccccc1-2,7.91,,C1C2=CC=CC=C2C3=CC=CC=C31,,,
124,"Naphthalene, 2-methyl-",Cc1ccc2ccccc2c1,7.91,,CC1=CC2=CC=CC=C2C=C1,,,
125,"Benzene, (methylthio)-",CSc1ccccc1,7.94,,CSC1=CC=CC=C1,,,
126,"N,N-Diethylaniline",CCN(CC)c1ccccc1,6.98,,CCN(CC)C1=CC=CC=C1,,,
127,2-Naphthalenamine,Nc1ccc2ccccc2c1,7.1,,C1=CC=C2C=C(C=CC2=C1)N,,,
128,"Benzenamine, N,N-dimethyl-",CN(C)c1ccccc1,7.12,,CN(C)C1=CC=CC=C1,,,
129,"Hydrazine, 1,1-dimethyl-",CN(C)N,7.29,,CN(C)N,,,
130,"Benzaldehyde, 4-(dimethylamino)-",CN(C)c1ccc(C=O)cc1,7.3,,CN(C)C1=CC=C(C=C1)C=O,,,
131,"Aniline, N-methyl-",CNc1ccccc1,7.32,,CNC1=CC=CC=C1,,,
132,Triethylenediamine,C1CN2CCN1CC2,7.321,,C1CN2CCN1CC2,,,
133,"2,6-Xylidine",Cc1cccc(C)c1N,7.33,,CC1=C(C(=CC=C1)C)N,,,
134,"Disulfide, dimethyl",CSSC,7.4,,CSSC,,,
135,"Benzenamine, N,N,2-trimethyl-",Cc1ccccc1N(C)C,7.42,,CC1=CC=CC=C1N(C)C,,,
136,"Naphthalene, 1-methyl-",Cc1cccc2ccccc12,7.96,,CC1=CC=CC2=CC=CC=C12,,,
137,o-Terphenyl,c1ccc(-c2ccccc2-c2ccccc2)cc1,7.99,,C1=CC=C(C=C1)C2=CC=CC=C2C3=CC=CC=C3,,,
138,m-Terphenyl,c1ccc(-c2cccc(-c3ccccc3)c2)cc1,8.02,,C1=CC=C(C=C1)C2=CC(=CC=C2)C3=CC=CC=C3,,,
139,"Benzene, 1,2,4,5-tetramethyl-",Cc1cc(C)c(C)cc1C,8.06,,CC1=CC(=C(C=C1C)C)C,,,
140,"Naphthalene, 1-bromo-",Brc1cccc2ccccc12,8.08,,C1=CC=C2C(=C1)C=CC=C2Br,,,
141,Acenaphthylene,C1=Cc2cccc3cccc1c23,8.12,,C1=CC2=C3C(=C1)C=CC3=CC=C2,,,
142,"Benzene, 1-bromo-4-methoxy-",COc1ccc(Br)cc1,8.13,,COC1=CC=C(C=C1)Br,,,
143,Biphenyl,c1ccc(-c2ccccc2)cc1,8.16,,C1=CC=C(C=C1)C2=CC=CC=C2,,,
144,Benzo[b]thiophene,c1ccc2sccc2c1,8.17,,C1=CC=C2C(=C1)C=CS2,,,
145,Diisopropyl sulfide,CC(C)SC(C)C,8.2,,CC(C)SC(C)C,,,
146,Dimethylamine,CNC,8.24,,CNC,,,
147,"2-Butene, 2,3-dimethyl-",CC(C)=C(C)C,8.27,,CC(=C(C)C)C,,,
148,"Benzene, 1,2,4-trimethyl-",Cc1ccc(C)c(C)c1,8.27,,CC1=CC(=C(C=C1)C)C,,,
149,"Phenol, 3-methyl-",Cc1cccc(O)c1,8.29,,CC1=CC(=CC=C1)O,,,
150,Benzenethiol,Sc1ccccc1,8.3,,C1=CC=C(C=C1)S,,,
151,p-Cresol,Cc1ccc(O)cc1,8.34,,CC1=CC=C(C=C1)O,,,
152,"2H-Pyran, 3,4-dihydro-",C1=COCCC1,8.35,,C1CC=COC1,,,
153,Ethanethioamide,CC(=N)S,8.35,,CC(=S)N,,,
154,Benzofuran,c1ccc2occc2c1,8.36,,C1=CC=C2C(=C1)C=CO2,,,
155,"2,5-Norbornadiene",C1=CC2C=CC1C2,8.38,,C1C2C=CC1C=C2,,,
156,"Furan, 2-methyl-",Cc1ccco1,8.38,,CC1=CC=CO1,,,
157,"1,3-Cyclopentadiene, 1-methyl-",CC1=CC=CC1,8.4,,CC1=CC=CC1,,,
158,Diethyl sulfide,CCSCC,8.42,,CCSCC,,,
159,"Benzene, 1,2,3-trimethyl-",Cc1cccc(C)c1C,8.42,,CC1=C(C(=CC=C1)C)C,,,
160,2(1H)-Pyridinone,Oc1ccccn1,8.448,,C1=CC(=O)NC=C1,,,
161,"Naphthalene, 1,2,3,4-tetrahydro-",c1ccc2c(c1)CCCC2,8.46,,C1CCC2=CC=CC=C2C1,,,
162,Isoquinoline,c1ccc2cnccc2c1,8.53,,C1=CC=C2C=NC=CC2=C1,,,
163,"Benzene, 1,3-dimethyl-",Cc1cccc(C)c1,8.55,,CC1=CC(=CC=C1)C,,,
164,"Ethane, (methylthio)-",CCSC,8.55,,CCSC,,,
165,Cubane,C12C3C4C1C1C2C3C41,8.6,,C12C3C4C1C5C2C3C45,,,
166,"Benzene, 1-bromo-2-methyl-",Cc1ccccc1Br,8.56,,CC1=CC=CC=C1Br,,,
167,o-Xylene,Cc1ccccc1C,8.56,,CC1=CC=CC=C1C,,,
168,"1,3-Cyclopentadiene",C1=CCC=C1,8.57,,C1C=CC=C1,,,
169,"1,3-Pentadiene, (E)-",C=C/C=C/C,8.59,,C/C=C/C=C,,,
170,"1,3-Pentadiene, (Z)-",C=C/C=C\C,8.62,,C/C=C\C=C,,,
171,"Phenol, 3-chloro-",Oc1cccc(Cl)c1,8.655,,C1=CC(=CC(=C1)Cl)O,,,
172,"Benzene, 1-bromo-4-methyl-",Cc1ccc(Br)cc1,8.68,,CC1=CC=C(C=C1)Br,,,
173,"Benzene, (1-methylpropyl)-",CCC(C)c1ccccc1,8.68,,CCC(C)C1=CC=CC=C1,,,
174,"Benzene, tert-butyl-",CC(C)(C)c1ccccc1,8.68,,CC(C)(C)C1=CC=CC=C1,,,
175,"Benzene, n-butyl-",CCCCc1ccccc1,8.69,,CCCCC1=CC=CC=C1,,,
176,"Benzene, 1-chloro-4-methyl-",Cc1ccc(Cl)cc1,8.69,,CC1=CC=C(C=C1)Cl,,,
177,"2-Butene, 2-methyl-",CC=C(C)C,8.69,,CC=C(C)C,,,
178,Dimethyl sulfide,CSC,8.69,,CSC,,,
179,Bicyclo[1.1.0]butane,C1C2CC12,8.7,,C1C2C1C2,,,
180,"Benzene, propyl-",CCCc1ccccc1,8.713,,CCCC1=CC=CC=C1,,,
181,"Benzene, iodo-",Ic1ccccc1,8.72,,C1=CC=C(C=C1)I,,,
182,"Benzene, 1-chloro-2-methyl-",Cc1ccccc1Cl,8.72,,CC1=CC=CC=C1Cl,,,
183,1-Butanamine,CCCCN,8.73,,CCCCN,,,
184,"Benzene, (1-methylethyl)-",CC(C)c1ccccc1,8.73,,CC(C)C1=CC=CC=C1,,,
185,Pyridazine,c1ccnnc1,8.74,,C1=CC=NN=C1,,,
186,"Thiophene, 2-chloro-",Clc1cccs1,8.74,,C1=CSC(=C1)Cl,,,
187,"Benzene, isocyanato-",O=C=Nc1ccccc1,8.77,,C1=CC=C(C=C1)N=C=O,,,
188,"Benzene, 1-fluoro-4-methyl-",Cc1ccc(F)cc1,8.79,,CC1=CC=C(C=C1)F,,,
189,"Benzoic acid, phenyl ester",O=C(Oc1ccccc1)c1ccccc1,8.8,,C1=CC=C(C=C1)C(=O)OC2=CC=CC=C2,,,
190,1H-Imidazole,c1c[nH]cn1,8.81,,C1=CN=CN1,,,
191,"Benzene, 1,4-dibromo-",Brc1ccc(Br)cc1,8.82,,C1=CC(=CC=C1Br)Br,,,
192,Anthrone,O=C1c2ccccc2Cc2ccccc21,8.82,,C1C2=CC=CC=C2C(=O)C3=CC=CC=C31,,,
193,Acetylacetone,CC(=O)CC(C)=O,8.85,,CC(=O)CC(=O)C,,,
194,"2,6-Lutidine",Cc1cccc(C)n1,8.86,,CC1=NC(=CC=C1)C,,,
195,Isoprene,C=CC(=C)C,8.86,,CC(=C)C=C,,,
196,Perfluoronaphthalene,Fc1c(F)c(F)c2c(F)c(F)c(F)c(F)c2c1F,8.87,,C12=C(C(=C(C(=C1F)F)F)F)C(=C(C(=C2F)F)F)F,,,
197,Di-tert-Butyl ether,CC(C)(C)OC(C)(C)C,8.88,,CC(C)(C)OC(C)(C)C,,,
198,"Stannane, tetramethyl-",[CH3].[CH3].[CH3].[CH3].[Sn],8.89,,C[Sn](C)(C)C,,,
199,Methylamine,CN,8.9,,CN,,,
200,"Benzene, 1-fluoro-3-methyl-",Cc1cccc(F)c1,8.91,,CC1=CC(=CC=C1)F,,,
201,"Benzene, 1-fluoro-2-methyl-",Cc1ccccc1F,8.91,,CC1=CC=CC=C1F,,,
202,"Benzene, 1,4-dichloro-",Clc1ccc(Cl)cc1,8.92,,C1=CC(=CC=C1Cl)Cl,,,
203,"Ethene, methoxy-",C=COC,8.95,,COC=C,,,
204,"3-Pentanone, 2,4-dimethyl-",CC(C)C(=O)C(C)C,8.96,,CC(C)C(=O)C(C)C,,,
205,"2-Hexene, (E)-",C/C=C/CCC,8.97,,CCC/C=C/C,,,
206,"2-Pentene, 4-methyl-, (E)-",C/C=C/C(C)C,8.97,,C/C=C/C(C)C,,,
207,"2-Hexene, (Z)-",C/C=C\CCC,8.97,,CCC/C=C\C,,,
208,tert-Butyl iodide,CC(C)(C)I,8.98,,CC(C)(C)I,,,
209,"2-Pentene, 4-methyl-, (Z)-",C/C=C\C(C)C,8.98,,C/C=C\C(C)C,,,
210,"Benzene, (bromomethyl)-",BrCc1ccccc1,8.99,,C1=CC=C(C=C1)CBr,,,
211,"Methane, diazo-",C=[N+]=[N-],8.999,,C=[N+]=[N-],,,
212,"Benzene, bromo-",Brc1ccccc1,9.0,,C1=CC=C(C=C1)Br,,,
213,1-Penten-3-yne,C=CC#CC,9.0,,CC#CC=C,,,
214,"Benzene, 1,3-dibromo-",Brc1cccc(Br)c1,9.01,,C1=CC(=CC(=C1)Br)Br,,,
215,"4-Heptanone, 2,6-dimethyl-",CC(C)CC(=O)CC(C)C,9.01,,CC(C)CC(=O)CC(C)C,,,
216,"2-Pentene, (Z)-",C/C=C\CC,9.01,,CC/C=C\C,,,
217,"2-Pentene, (E)-",C/C=C/CC,9.04,,CC/C=C/C,,,
218,"Pentane, 3-methylene-",C=C(CC)CC,9.06,,CCC(=C)CC,,,
219,"Benzene, 1,2-dichloro-",Clc1ccccc1Cl,9.06,,C1=CC=C(C(=C1)Cl)Cl,,,
220,"Benzene, chloro-",Clc1ccccc1,9.07,,C1=CC=C(C=C1)Cl,,,
221,"1-Butene, 2,3-dimethyl-",C=C(C)C(C)C,9.07,,CC(C)C(=C)C,,,
222,"1,3-Butadiene",C=CC=C,9.072,,C=CC=C,,,
223,"1-Pentene, 2-methyl-",C=C(C)CCC,9.08,,CCCC(=C)C,,,
224,4-Heptanone,CCCC(=O)CCC,9.1,,CCCC(=O)CCC,,,
225,"3-Penten-2-one, 4-methyl-",CC(=O)C=C(C)C,9.1,,CC(=CC(=O)C)C,,,
226,"Butane, 2-iodo-",CCC(C)I,9.1,,CCC(C)I,,,
227,"Benzene, 1,3-dichloro-",Clc1cccc(Cl)c1,9.1,,C1=CC(=CC(=C1)Cl)Cl,,,
228,"3-Pentanone, 2-methyl-",CCC(=O)C(C)C,9.1,,CCC(=O)C(C)C,,,
229,"2-Butene, (E)-",C/C=C/C,9.1,,C/C=C/C,,,
230,Fluoromethylidyne,[C-]=[F+],9.11,,CF,,,
231,"2-Butene, (Z)-",C/C=C\C,9.11,,C/C=C\C,,,
232,2-Methyl-1-butene,C=C(C)CC,9.12,,CCC(=C)C,,,
233,1-Butanethiol,CCCCS,9.14,,CCCCS,,,
234,"2-Butanone, 3,3-dimethyl-",CC(=O)C(C)(C)C,9.14,,CC(=O)C(C)(C)C,,,
235,3-Heptanone,CCCCC(=O)CC,9.15,,CCCCC(=O)CC,,,
236,"Benzene, 1,4-difluoro-",Fc1ccc(F)cc1,9.1589,,C1=CC(=CC=C1F)F,,,
237,"Propane, 1-iodo-2-methyl-",CC(C)CI,9.18,,CC(C)CI,,,
238,"Propane, 2-iodo-",CC(C)I,9.19,,CC(C)I,,,
239,Propyl mercaptan,CCCS,9.2,,CCCS,,,
240,Diisopropyl ether,CC(C)OC(C)C,9.2,,CC(C)OC(C)C,,,
241,4-Octyne,CCCC#CCCC,9.2,,CCCC#CCCC,,,
242,"Benzene, fluoro-",Fc1ccccc1,9.2,,C1=CC=C(C=C1)F,,,
243,"Pentane, 1-iodo-",CCCCCI,9.2,,CCCCCI,,,
244,"2-Pentanone, 3-methyl-",CCC(C)C(C)=O,9.21,,CCC(C)C(=O)C,,,
245,"1-Propene, 2-methyl-",C=C(C)C,9.22,,CC(=C)C,,,
246,3-Octyne,CCC#CCCCC,9.22,,CCCCC#CCC,,,
247,Furfural,O=Cc1ccco1,9.22,,C1=COC(=C1)C=O,,,
248,"Butane, 1-iodo-",CCCCI,9.23,,CCCCI,,,
249,"Methane, triiodo-",IC(I)I,9.23,,C(I)(I)I,,,
250,Tetrahydropyran,C1CCOCC1,9.25,,C1CCOCC1,,,
251,"1-Buten-3-yne, 2-methyl-",C#CC(=C)C,9.25,,CC(=C)C#C,,,
252,"Propane, 1-iodo-",CCCI,9.26,,CCCI,,,
253,Cyclopentanone,O=C1CCCC1,9.26,,C1CCC(=O)C1,,,
254,2-Heptanone,CCCCCC(C)=O,9.27,,CCCCCC(=O)C,,,
255,"1,5-Hexadiene",C=CCCC=C,9.27,,C=CCCC=C,,,
256,"Benzene, 1,2-difluoro-",Fc1ccccc1F,9.29,,C1=CC=C(C(=C1)F)F,,,
257,Methyl Isobutyl Ketone,CC(=O)CC(C)C,9.3,,CC(C)CC(=O)C,,,
258,"Benzene, 1,3,5-trichloro-",Clc1cc(Cl)cc(Cl)c1,9.3,,C1=C(C=C(C=C1Cl)Cl)Cl,,,
259,Di-n-propyl ether,CCCOCCC,9.3,,CCCOCCC,,,
260,2-Octyne,CC#CCCCCC,9.31,,CCCCCC#CC,,,
261,"2-Butanone, 3-methyl-",CC(=O)C(C)C,9.31,,CC(C)C(=O)C,,,
262,Ethanethiol,CCS,9.31,,CCS,,,
263,3-Pentanone,CCC(=O)CC,9.31,,CCC(=O)CC,,,
264,"Naphthalene, decahydro-, cis-",C1CC[C@H]2CCCC[C@H]2C1,9.32,,C1CCC2CCCCC2C1,,,
265,"Naphthalene, decahydro-, trans-",C1CC[C@H]2CCCC[C@@H]2C1,9.32,,C1CCC2CCCCC2C1,,,
266,"Benzoic acid, methyl ester",COC(=O)c1ccccc1,9.32,,COC(=O)C1=CC=CC=C1,,,
267,"1,3-Diazine",c1cncnc1,9.33,,C1=CN=CN=C1,,,
268,"Benzene, 1,2,4,5-tetrafluoro-",Fc1cc(F)c(F)cc1F,9.33,,C1=C(C(=CC(=C1F)F)F)F,,,
269,"Benzene, 1,3-difluoro-",Fc1cccc(F)c1,9.33,,C1=CC(=CC(=C1)F)F,,,
270,1-Heptene,C=CCCCCC,9.34,,CCCCCC=C,,,
271,"Ethane, iodo-",CCI,9.349,,CCI,,,
272,2-Hexanone,CCCCC(C)=O,9.35,,CCCCC(=O)C,,,
273,2-Hexyne,CC#CCCC,9.37,,CCCC#CC,,,
274,2-Pentanone,CCCC(C)=O,9.38,,CCCC(=O)C,,,
275,Benzyl nitrile,N#CCc1ccccc1,9.39,,C1=CC=C(C=C1)CC#N,,,
276,Tetrahydrofuran,C1CCOC1,9.4,,C1CCOC1,,,
277,1-Decene,C=CCCCCCCCC,9.42,,CCCCCCCCC=C,,,
278,Cyclobutene,C1=CCC1,9.43,,C1CC=C1,,,
279,Methanethiol,CS,9.439,,CS,,,
280,1-Hexene,C=CCCCC,9.44,,CCCCC=C,,,
281,"Propane, 2-methoxy-",COC(C)C,9.45,,CC(C)OC,,,
282,"1-Pentene, 4-methyl-",C=CCC(C)C,9.45,,CC(C)CC=C,,,
283,"Methane, diiodo-",ICI,9.46,,C(I)I,,,
284,Bicyclo[2.2.2]octane,C1CC2CCC1CC2,9.47,,C1CC2CCC1CC2,,,
285,Ethyl ether,CCOCC,9.51,,CCOCC,,,
286,"Propanal, 2,2-dimethyl-",CC(C)(C)C=O,9.51,,CC(C)(C)C=O,,,
287,"1-Butene, 3-methyl-",C=CC(C)C,9.52,,CC(C)C=C,,,
288,2-Butanone,CCC(C)=O,9.52,,CCC(=O)C,,,
289,"Benzene, 1,2,3,5-tetrafluoro-",Fc1cc(F)c(F)c(F)c1,9.55,,C1=C(C=C(C(=C1F)F)F)F,,,
290,"Benzene, 1,2,3,4-tetrafluoro-",Fc1ccc(F)c(F)c1F,9.57,,C1=CC(=C(C(=C1F)F)F)F,,,
291,2-Butyne,CC#CC,9.58,,CC#CC,,,
292,1-Buten-3-yne,C#CC=C,9.58,,C=CC#C,,,
293,Ketene,C=C=O,9.617,,C=C=O,,,
294,"Cyclohexane, methyl-",CC1CCCCC1,9.64,,CC1CCCCC1,,,
295,"Ethylene, 1,2-dichloro-, (E)-",Cl/C=C/Cl,9.64,,C(=C/Cl)\Cl,,,
296,Trimethylene oxide,C1COC1,9.65,,C1COC1,,,
297,Methyl vinyl ketone,C=CC(C)=O,9.65,,CC(=O)C=C,,,
298,"Ethene, 1,1-dichloro-2,2-difluoro-",FC(F)=C(Cl)Cl,9.65,,C(=C(Cl)Cl)(F)F,,,
299,"Ethylene, 1,2-dichloro-, (Z)-",Cl/C=C\Cl,9.66,,C(=C\Cl)\Cl,,,
300,2-Propen-1-ol,C=CCO,9.67,,C=CCO,,,
301,Cyclopropene,C1=CC1,9.67,,C1C=C1,,,
302,"Benzene, (trifluoromethyl)-",FC(F)(F)c1ccccc1,9.685,,C1=CC=C(C=C1)C(F)(F)F,,,
303,Acetamide,CC(=N)O,9.69,,CC(=O)N,,,
304,Allene,C=C=C,9.692,,C=C=C,,,
305,"Cyclopentane, methyl-",CC1CCCC1,9.7,,CC1CCCC1,,,
306,Acetone,CC(C)=O,9.703,,CC(=O)C,,,
307,Nonane,CCCCCCCCC,9.71,,CCCCCCCCC,,,
308,"Propanal, 2-methyl-",CC(C)C=O,9.71,,CC(C)C=O,,,
309,"Ethane, methoxy-",CCOC,9.72,,CCOC,,,
310,Hexanal,CCCCCC=O,9.72,,CCCCCC=O,,,
311,Pentanal,CCCCC=O,9.74,,CCCCC=O,,,
312,Cyclooctane,C1CCCCCCC1,9.75,,C1CCCCCCC1,,,
313,3-Pentanol,CCC(O)CC,9.76,,CCC(CC)O,,,
314,Norbornane,C1CC2CCC1C2,9.77,,C1CC2CCC1C2,,,
315,2-Pentanol,CCCC(C)O,9.78,,CCCC(C)O,,,
316,Octane,CCCCCCCC,9.8,,CCCCCCCC,,,
317,"Ethene, 2-chloro-1,1-difluoro-",FC(F)=CCl,9.8,,C(=C(F)F)Cl,,,
318,"Silane, tetramethyl-",C[Si](C)(C)C,9.8,,C[Si](C)(C)C,,,
319,Methyl azide,CN=[N+]=[N-],9.81,,CN=[N+]=[N-],,,
320,"Ethene, 1,1-dichloro-",C=C(Cl)Cl,9.81,,C=C(Cl)Cl,,,
321,"Ethene, chlorotrifluoro-",FC(F)=C(F)Cl,9.81,,C(=C(F)Cl)(F)F,,,
322,Butanal,CCCC=O,9.82,,CCCC=O,,,
323,Vinyl bromide,C=CBr,9.82,,C=CBr,,,
324,"Formamide, N-methyl-",CN=CO,9.83,,CNC=O,,,
325,"Heptane, 2-methyl-",CCCCCC(C)C,9.84,,CCCCCC(C)C,,,
326,Cyclopropane,C1CC1,9.86,,C1CC1,,,
327,"Cyclohexane, bromo-",BrC1CCCCC1,9.87,,C1CCC(CC1)Br,,,
328,Cyclohexane,C1CCCCC1,9.88,,C1CCCCC1,,,
329,2-Butanol,CCC(C)O,9.88,,CCC(C)O,,,
330,"Pentane, 2,2,4-trimethyl-",CC(C)CC(C)(C)C,9.89,,CC(C)CC(C)(C)C,,,
331,"2-Butenoic acid, (E)-",C/C=C/C(=O)O,9.9,,C/C=C/C(=O)O,,,
332,Cycloheptane,C1CCCCCC1,9.9,,C1CCCCCC1,,,
333,"2-Propanol, 2-methyl-",CC(C)(C)O,9.9,,CC(C)(C)O,,,
334,"Propane, 2-bromo-2-methyl-",CC(C)(C)Br,9.92,,CC(C)(C)Br,,,
335,"2-Propanone, 1-chloro-",CC(=O)CCl,9.92,,CC(=O)CCl,,,
336,Heptane,CCCCCCC,9.93,,CCCCCCC,,,
337,"Bicyclo[4.2.0]octa-1,3,5,7-tetraene",C1=Cc2ccccc21,,0.321,,,,
338,2-Butyl radical,C[CH]CC,,-0.129,,,,
339,"1,3,5,7-Cyclooctatetraene",C1=C/C=C\C=C/C=C1,,0.57,,,,
340,"Benzene, pentachloro-",Clc1cc(Cl)c(Cl)c(Cl)c1Cl,,0.729,,,,
341,m-Xylene,CC1=CC(=CC=C1)C,,,,1.8400000000000003,oxidation,ACN
342,Phenylacetylene,C#CC1=CC=CC=C1,,,,1.89,oxidation,ACN
343,1-ethynyl-4-methoxybenzene,COC1=CC=C(C=C1)C#C,,,,1.27,oxidation,ACN
344,2-Methyl-1-pentene,CCCC(=C)C,,,,2.12,oxidation,ACN
345,Norbornene,C1CC2CC1C=C2,,,,1.8400000000000003,oxidation,ACN
346,3-Methyl-2-buten-1-ol,CC(=CCO)C,,,,1.7200000000000002,oxidation,ACN
347,2-Methyl-2-butene,CC=C(C)C,,,,1.6,oxidation,ACN
348,2-Chloro-trans-β-methylstyrene,C=CC1=CC=CC=C1,,,,1.56,oxidation,ACN
349,1-Methylcyclohexene,CC1=CCCCC1,,,,1.56,oxidation,ACN
350,beta-Methylstyrene,C/C=C/C1=CC=CC=C1,,,,1.5299999999999998,oxidation,ACN
351,(E)-Methyl 4-(prop-1-en-1-yl)benzoate,C/C=C/C1=CC=C(C=C1)C(=O)OC,,,,1.56,oxidation,ACN
352,1-Phenylcyclohexene,C1CCC(=CC1)C2=CC=CC=C2,,,,1.2599999999999998,oxidation,ACN
353,trans-Anethole,C/C=C/C1=CC=C(C=C1)OC,,,,0.86,oxidation,ACN
354,4-Cyanophenol,C1=CC(=CC=C1C#N)O,,,,1.7000000000000002,oxidation,ACN
355,Isosafrole,C/C=C/C1=CC2=C(C=C1)OCO2,,,,0.7699999999999999,oxidation,ACN
356,4-Bromophenol,C1=CC(=CC=C1O)Br,,,,1.31,oxidation,ACN
357,Guaiacol,COC1=CC=CC=C1O,,,,1.0299999999999998,oxidation,ACN