,Name,InChI,CAS Link,smiles,IE / eV,EA / eV,pubchem_smiles,E12,Reaction,Solvent
377,1-Buten-3-yne,"InChI=1S/C4H4/c1-3-4-2/h1,4H,2H2",Copy,C#CC=C,9.58,,C=CC#C,,,
378,Ketene,InChI=1S/C2H2O/c1-2-3/h1H2,Copy,C=C=O,9.617,,C=C=O,,,
379,"Benzene, bromopentafluoro-",InChI=1S/C6BrF5/c7-1-2(8)4(10)6(12)5(11)3(1)9,Copy,Fc1c(F)c(F)c(Br)c(F)c1F,9.62,,C1(=C(C(=C(C(=C1F)F)Br)F)F)F,,,
380,"Cyclohexane, methyl-","InChI=1S/C7H14/c1-7-5-3-2-4-6-7/h7H,2-6H2,1H3",Copy,CC1CCCCC1,9.64,,CC1CCCCC1,,,
381,"Ethylene, 1,2-dichloro-, (E)-",InChI=1S/C2H2Cl2/c3-1-2-4/h1-2H/b2-1+,Copy,Cl/C=C/Cl,9.64,,C(=C/Cl)\Cl,,,
382,Trimethylene oxide,InChI=1S/C3H6O/c1-2-4-3-1/h1-3H2,Copy,C1COC1,9.65,,C1COC1,,,
383,Methyl vinyl ketone,"InChI=1S/C4H6O/c1-3-4(2)5/h3H,1H2,2H3",Copy,C=CC(C)=O,9.65,,CC(=O)C=C,,,
384,"Ethene, 1,1-dichloro-2,2-difluoro-",InChI=1S/C2Cl2F2/c3-1(4)2(5)6,Copy,FC(F)=C(Cl)Cl,9.65,,C(=C(Cl)Cl)(F)F,,,
385,"Ethylene, 1,2-dichloro-, (Z)-",InChI=1S/C2H2Cl2/c3-1-2-4/h1-2H/b2-1-,Copy,Cl/C=C\Cl,9.66,,C(=C\Cl)\Cl,,,
386,2-Propen-1-ol,"InChI=1S/C3H6O/c1-2-3-4/h2,4H,1,3H2",Copy,C=CCO,9.67,,C=CCO,,,
387,Cyclopropene,"InChI=1S/C3H4/c1-2-3-1/h1-2H,3H2",Copy,C1=CC1,9.67,,C1C=C1,,,
388,"Benzene, (trifluoromethyl)-","InChI=1S/C7H5F3/c8-7(9,10)6-4-2-1-3-5-6/h1-5H",Copy,FC(F)(F)c1ccccc1,9.685,,C1=CC=C(C=C1)C(F)(F)F,,,
389,Acetamide,"InChI=1S/C2H5NO/c1-2(3)4/h1H3,(H2,3,4)",Copy,CC(=N)O,9.69,,CC(=O)N,,,
390,Allene,InChI=1S/C3H4/c1-3-2/h1-2H2,Copy,C=C=C,9.692,,C=C=C,,,
391,"Cyclopentane, methyl-","InChI=1S/C6H12/c1-6-4-2-3-5-6/h6H,2-5H2,1H3",Copy,CC1CCCC1,9.7,,CC1CCCC1,,,
392,Acetone,InChI=1S/C3H6O/c1-3(2)4/h1-2H3,Copy,CC(C)=O,9.703,,CC(=O)C,,,
393,Nonane,"InChI=1S/C9H20/c1-3-5-7-9-8-6-4-2/h3-9H2,1-2H3",Copy,CCCCCCCCC,9.71,,CCCCCCCCC,,,
394,"Propanal, 2-methyl-","InChI=1S/C4H8O/c1-4(2)3-5/h3-4H,1-2H3",Copy,CC(C)C=O,9.71,,CC(C)C=O,,,
395,"Benzene, chloropentafluoro-",InChI=1S/C6ClF5/c7-1-2(8)4(10)6(12)5(11)3(1)9,Copy,Fc1c(F)c(F)c(Cl)c(F)c1F,9.72,,C1(=C(C(=C(C(=C1F)F)Cl)F)F)F,,,
396,"Ethane, methoxy-","InChI=1S/C3H8O/c1-3-4-2/h3H2,1-2H3",Copy,CCOC,9.72,,CCOC,,,
397,Hexanal,"InChI=1S/C6H12O/c1-2-3-4-5-6-7/h6H,2-5H2,1H3",Copy,CCCCCC=O,9.72,,CCCCCC=O,,,
398,Benzonitrile,InChI=1S/C7H5N/c8-6-7-4-2-1-3-5-7/h1-5H,Copy,N#Cc1ccccc1,9.73,,C1=CC=C(C=C1)C#N,,,
399,Propene,"InChI=1S/C3H6/c1-3-2/h3H,1H2,2H3",Copy,C=CC,9.73,,CC=C,,,
400,Pentanal,"InChI=1S/C5H10O/c1-2-3-4-5-6/h5H,2-4H2,1H3",Copy,CCCCC=O,9.74,,CCCCC=O,,,
401,Cyclooctane,InChI=1S/C8H16/c1-2-4-6-8-7-5-3-1/h1-8H2,Copy,C1CCCCCCC1,9.75,,C1CCCCCCC1,,,
402,3-Pentanol,"InChI=1S/C5H12O/c1-3-5(6)4-2/h5-6H,3-4H2,1-2H3",Copy,CCC(O)CC,9.76,,CCC(CC)O,,,
403,Norbornane,"InChI=1S/C7H12/c1-2-7-4-3-6(1)5-7/h6-7H,1-5H2",Copy,C1CC2CCC1C2,9.77,,C1CC2CCC1C2,,,
404,2-Pentanol,"InChI=1S/C5H12O/c1-3-4-5(2)6/h5-6H,3-4H2,1-2H3",Copy,CCCC(C)O,9.78,,CCCC(C)O,,,
405,Octane,"InChI=1S/C8H18/c1-3-5-7-8-6-4-2/h3-8H2,1-2H3",Copy,CCCCCCCC,9.8,,CCCCCCCC,,,
406,Cyclobutane,InChI=1S/C4H8/c1-2-4-3-1/h1-4H2,Copy,C1CCC1,9.8,,C1CCC1,,,
407,"Ethene, 2-chloro-1,1-difluoro-",InChI=1S/C2HClF2/c3-1-2(4)5/h1H,Copy,FC(F)=CCl,9.8,,C(=C(F)F)Cl,,,
408,"Silane, tetramethyl-","InChI=1S/C4H12Si/c1-5(2,3)4/h1-4H3",Copy,C[Si](C)(C)C,9.8,,C[Si](C)(C)C,,,
409,Methyl azide,InChI=1S/CH3N3/c1-3-4-2/h1H3,Copy,CN=[N+]=[N-],9.81,,CN=[N+]=[N-],,,
410,"Ethene, 1,1-dichloro-",InChI=1S/C2H2Cl2/c1-2(3)4/h1H2,Copy,C=C(Cl)Cl,9.81,,C=C(Cl)Cl,,,
411,"Ethene, chlorotrifluoro-",InChI=1S/C2ClF3/c3-1(4)2(5)6,Copy,FC(F)=C(F)Cl,9.81,,C(=C(F)Cl)(F)F,,,
412,Butanal,"InChI=1S/C4H8O/c1-2-3-4-5/h4H,2-3H2,1H3",Copy,CCCC=O,9.82,,CCCC=O,,,
413,Vinyl bromide,"InChI=1S/C2H3Br/c1-2-3/h2H,1H2",Copy,C=CBr,9.82,,C=CBr,,,
414,"Formamide, N-methyl-","InChI=1S/C2H5NO/c1-3-2-4/h2H,1H3,(H,3,4)",Copy,CN=CO,9.83,,CNC=O,,,
415,Methyl radical,InChI=1S/CH3/h1H3,Copy,[CH3],9.84,,[CH3],,,
416,"Heptane, 2-methyl-","InChI=1S/C8H18/c1-4-5-6-7-8(2)3/h8H,4-7H2,1-3H3",Copy,CCCCCC(C)C,9.84,,CCCCCC(C)C,,,
417,Cyclopropane,InChI=1S/C3H6/c1-2-3-1/h1-3H2,Copy,C1CC1,9.86,,C1CC1,,,
418,"Cyclohexane, bromo-","InChI=1S/C6H11Br/c7-6-4-2-1-3-5-6/h6H,1-5H2",Copy,BrC1CCCCC1,9.87,,C1CCC(CC1)Br,,,
419,Cyclohexane,InChI=1S/C6H12/c1-2-4-6-5-3-1/h1-6H2,Copy,C1CCCCC1,9.88,,C1CCCCC1,,,
420,2-Butanol,"InChI=1S/C4H10O/c1-3-4(2)5/h4-5H,3H2,1-2H3",Copy,CCC(C)O,9.88,,CCC(C)O,,,
421,"Pentane, 2,2,4-trimethyl-","InChI=1S/C8H18/c1-7(2)6-8(3,4)5/h7H,6H2,1-5H3",Copy,CC(C)CC(C)(C)C,9.89,,CC(C)CC(C)(C)C,,,
422,"2-Butenoic acid, (E)-","InChI=1S/C4H6O2/c1-2-3-4(5)6/h2-3H,1H3,(H,5,6)/b3-2+",Copy,C/C=C/C(=O)O,9.9,,C/C=C/C(=O)O,,,
423,Cycloheptane,InChI=1S/C7H14/c1-2-4-6-7-5-3-1/h1-7H2,Copy,C1CCCCCC1,9.9,,C1CCCCCC1,,,
424,"Benzene, hexafluoro-",InChI=1S/C6F6/c7-1-2(8)4(10)6(12)5(11)3(1)9,Copy,Fc1c(F)c(F)c(F)c(F)c1F,9.9,,C1(=C(C(=C(C(=C1F)F)F)F)F)F,,,
425,"2-Propanol, 2-methyl-","InChI=1S/C4H10O/c1-4(2,3)5/h5H,1-3H3",Copy,CC(C)(C)O,9.9,,CC(C)(C)O,,,
426,"Propane, 2-bromo-2-methyl-","InChI=1S/C4H9Br/c1-4(2,3)5/h1-3H3",Copy,CC(C)(C)Br,9.92,,CC(C)(C)Br,,,
427,"2-Propanone, 1-chloro-","InChI=1S/C3H5ClO/c1-3(5)2-4/h2H2,1H3",Copy,CC(=O)CCl,9.92,,CC(=O)CCl,,,
428,Heptane,"InChI=1S/C7H16/c1-3-5-7-6-4-2/h3-7H2,1-2H3",Copy,CCCCCCC,9.93,,CCCCCCC,,,
429,"Benzene, nitro-",InChI=1S/C6H5NO2/c8-7(9)6-4-2-1-3-5-6/h1-5H,Copy,O=[N+]([O-])c1ccccc1,9.94,,C1=CC=C(C=C1)[N+](=O)[O-],,,
430,Propanal,"InChI=1S/C3H6O/c1-2-3-4/h3H,2H2,1H3",Copy,CCC=O,,0.000999,,,,
431,p-Benzoquinone,InChI=1S/C6H4O2/c7-5-1-2-6(8)4-3-5/h1-4H,Copy,O=C1C=CC(=O)C=C1,,1.85,,,,
432,Fluoromethylene,InChI=1S/CHF/c1-2/h1H,Copy,[CH-]=[F+],,0.542,,,,
433,Carbon disulfide,InChI=1S/CS2/c2-1-3,Copy,S=C=S,,0.5525,,,,
434,"Methane, trifluoroiodo-","InChI=1S/CF3I/c2-1(3,4)5",Copy,FC(F)(F)I,,1.57,,,,
435,Methylene,InChI=1S/CH2/h1H2,Copy,[CH2],,0.652,,,,
436,Methylidyne,InChI=1S/CH/h1H,Copy,[CH],,1.26,,,,
437,"Methane, nitro-",InChI=1S/CH3NO2/c1-2(3)4/h1H3,Copy,C[N+](=O)[O-],,0.172,,,,
438,Carbonyl sulfide,InChI=1S/COS/c2-1-3,Copy,O=C=S,,0.46,,,,
439,Carbon monosulfide,InChI=1S/CS/c1-2,Copy,[C-]#[S+],,0.205,,,,
440,Trichloromethane,InChI=1S/CHCl3/c2-1(3)4/h1H,Copy,ClC(Cl)Cl,,0.62,,,,
441,Dicarbon,InChI=1S/C2/c1-2,Copy,[C+]#[C-],,3.273,,,,
442,Bromotrifluoromethane,"InChI=1S/CBrF3/c2-1(3,4)5",Copy,FC(F)(F)Br,,0.91,,,,
443,"Methylene, difluoro-",InChI=1S/CF2/c2-1-3,Copy,F[C-]=[F+],,0.18,,,,
444,Carbon Tetrachloride,"InChI=1S/CCl4/c2-1(3,4)5",Copy,ClC(Cl)(Cl)Cl,,0.8,,,,
445,Ethynyl radical,InChI=1S/C2H/c1-2/h1H,Copy,[C]#C,,2.9689,,,,
446,Propiolonitrile,InChI=1S/C3HN/c1-2-3-4/h1H,Copy,C#CC#N,,1.04,,,,
447,Isocyanato radical,InChI=1S/CNO/c2-1-3,Copy,N#C[O],,3.609,,,,
448,Propanenitrile,"InChI=1S/C3H5N/c1-2-3-4/h2H2,1H3",Copy,CCC#N,,0.015092,,,,
449,Dichlorodifluoromethane,"InChI=1S/CCl2F2/c2-1(3,4)5",Copy,FC(F)(Cl)Cl,,0.4,,,,
450,Pentacene,InChI=1S/C22H14/c1-2-6-16-10-20-14-22-12-18-8-4-3-7-17(18)11-21(22)13-19(20)9-15(16)5-1/h1-14H,Copy,c1ccc2cc3cc4cc5ccccc5cc4cc3cc2c1,,1.392,,,,
451,Benz[a]anthracene,InChI=1S/C18H12/c1-2-7-15-12-18-16(11-14(15)6-1)10-9-13-5-3-4-8-17(13)18/h1-12H,Copy,c1ccc2cc3c(ccc4ccccc43)cc2c1,,0.39,,,,
452,"Bicyclo[4.2.0]octa-1,3,5,7-tetraene",InChI=1S/C8H6/c1-2-4-8-6-5-7(8)3-1/h1-6H,Copy,C1=Cc2ccccc21,,0.321,,,,
453,Picene,InChI=1S/C22H14/c1-3-7-17-15(5-1)9-11-21-19(17)13-14-20-18-8-4-2-6-16(18)10-12-22(20)21/h1-14H,Copy,c1ccc2c(c1)ccc1c2ccc2c3ccccc3ccc21,,0.542,,,,
454,Biphenylene,InChI=1S/C12H8/c1-2-6-10-9(5-1)11-7-3-4-8-12(10)11/h1-8H,Copy,c1ccc2c(c1)-c1ccccc1-2,,0.89,,,,
455,Chrysene,InChI=1S/C18H12/c1-3-7-15-13(5-1)9-11-18-16-8-4-2-6-14(16)10-12-17(15)18/h1-12H,Copy,c1ccc2c(c1)ccc1c3ccccc3ccc21,,0.32,,,,
456,(E)-Stilbene,InChI=1S/C14H12/c1-3-7-13(8-4-1)11-12-14-9-5-2-6-10-14/h1-12H/b12-11+,Copy,C(=C/c1ccccc1)\c1ccccc1,,0.39,,,,
457,Indole,"InChI=1S/C8H7N/c1-2-4-8-7(3-1)5-6-9-8/h1-6,9H",Copy,c1ccc2[nH]ccc2c1,,0.00351,,,,
458,Triphenylene,InChI=1S/C18H12/c1-2-8-14-13(7-1)15-9-3-4-11-17(15)18-12-6-5-10-16(14)18/h1-12H,Copy,c1ccc2c(c1)c1ccccc1c1ccccc21,,0.285,,,,
459,Phenanthrene,InChI=1S/C14H10/c1-3-7-13-11(5-1)9-10-12-6-2-4-8-14(12)13/h1-10H,Copy,c1ccc2c(c1)ccc1ccccc12,,-0.01,,,,
460,Perylene,InChI=1S/C20H12/c1-5-13-6-2-11-17-18-12-4-8-14-7-3-10-16(20(14)18)15(9-1)19(13)17/h1-12H,Copy,c1cc2cccc3c4cccc5cccc(c(c1)c23)c54,,0.973,,,,
461,Naphthacene,InChI=1S/C18H12/c1-2-6-14-10-18-12-16-8-4-3-7-15(16)11-17(18)9-13(14)5-1/h1-12H,Copy,c1ccc2cc3cc4ccccc4cc3cc2c1,,1.058,,,,
462,Benzo[a]pyrene,InChI=1S/C20H12/c1-2-7-17-15(4-1)12-16-9-8-13-5-3-6-14-10-11-18(17)20(16)19(13)14/h1-12H,Copy,c1ccc2c(c1)cc1ccc3cccc4ccc2c1c34,,0.815,,,,
463,Benzo[ghi]perylene,InChI=1S/C22H12/c1-3-13-7-9-15-11-12-16-10-8-14-4-2-6-18-17(5-1)19(13)21(15)22(16)20(14)18/h1-12H,Copy,c1cc2ccc3ccc4ccc5cccc6c(c1)c2c3c4c56,,0.42,,,,
464,Benzyl radical,"InChI=1S/C7H7/c1-7-5-3-2-4-6-7/h2-6H,1H2",Copy,C=C1[CH]C=CC=C1,,0.912,,,,
465,2-Butyl radical,"InChI=1S/C4H9/c1-3-4-2/h3H,4H2,1-2H3",Copy,C[CH]CC,,-0.129,,,,
466,Coronene,InChI=1S/C24H12/c1-2-14-5-6-16-9-11-18-12-10-17-8-7-15-4-3-13(1)19-20(14)22(16)24(18)23(17)21(15)19/h1-12H,Copy,c1cc2ccc3ccc4ccc5ccc6ccc1c1c2c3c4c5c61,,0.47,,,,
467,"Dibenz[a,h]anthracene",InChI=1S/C22H14/c1-3-7-19-15(5-1)9-11-17-14-22-18(13-21(17)19)12-10-16-6-2-4-8-20(16)22/h1-14H,Copy,c1ccc2c(c1)ccc1cc3c(ccc4ccccc43)cc12,,0.595,,,,
468,Azulene,InChI=1S/C10H8/c1-2-5-9-7-4-8-10(9)6-3-1/h1-8H,Copy,c1ccc2cccc-2cc1,,0.79,,,,
469,Pyrene,InChI=1S/C16H10/c1-3-11-7-9-13-5-2-6-14-10-8-12(4-1)15(11)16(13)14/h1-10H,Copy,c1cc2ccc3cccc4ccc(c1)c2c34,,0.406,,,,
470,Anthracene,InChI=1S/C14H10/c1-2-6-12-10-14-8-4-3-7-13(14)9-11(12)5-1/h1-10H,Copy,c1ccc2cc3ccccc3cc2c1,,0.53,,,,
471,"1,3,5,7-Cyclooctatetraene","InChI=1S/C8H8/c1-2-4-6-8-7-5-3-1/h1-8H/b2-1-,3-1-,4-2-,5-3-,6-4-,7-5-,8-6-,8-7-",Copy,C1=C/C=C\C=C/C=C1,,0.57,,,,
472,Trichloromethyl radical,InChI=1S/CCl3/c2-1(3)4,Copy,Cl[C](Cl)Cl,,2.16,,,,
473,Formyl radical,InChI=1S/CHO/c1-2/h1H,Copy,[CH]=O,,0.313,,,,
474,p-Xylene,"InChI=1S/C8H10/c1-7-3-5-8(2)6-4-7/h3-6H,1-2H3",Copy,Cc1ccc(C)cc1,,0.001519,,,,
475,"Benzene, pentachloro-",InChI=1S/C6HCl5/c7-2-1-3(8)5(10)6(11)4(2)9/h1H,Copy,Clc1cc(Cl)c(Cl)c(Cl)c1Cl,,0.729,,,,
476,"Benzene, hexachloro-",InChI=1S/C6Cl6/c7-1-2(8)4(10)6(12)5(11)3(1)9,Copy,Clc1c(Cl)c(Cl)c(Cl)c(Cl)c1Cl,,0.92,,,,
477,Quinoxaline,InChI=1S/C8H6N2/c1-2-4-8-7(3-1)9-5-6-10-8/h1-6H,Copy,c1ccc2nccnc2c1,,0.71,,,,
478,Quinazoline,InChI=1S/C8H6N2/c1-2-4-8-7(3-1)5-9-6-10-8/h1-6H,Copy,c1ccc2ncncc2c1,,0.58,,,,
479,Benzophenone,InChI=1S/C13H10O/c14-13(11-7-3-1-4-8-11)12-9-5-2-6-10-12/h1-10H,Copy,O=C(c1ccccc1)c1ccccc1,,0.62,,,,
480,"9,10-Anthracenedione",InChI=1S/C14H8O2/c15-13-9-5-1-2-6-10(9)14(16)12-8-4-3-7-11(12)13/h1-8H,Copy,O=C1c2ccccc2C(=O)c2ccccc21,,1.591,,,,
481,Acetophenone,"InChI=1S/C8H8O/c1-7(9)8-5-3-2-4-6-8/h2-6H,1H3",Copy,CC(=O)c1ccccc1,,0.3339,,,,
482,Tetrachloroethylene,InChI=1S/C2Cl4/c3-1(4)2(5)6,Copy,ClC(Cl)=C(Cl)Cl,,0.64,,,,
483,"Benzene, 1-methyl-3-nitro-","InChI=1S/C7H7NO2/c1-6-3-2-4-7(5-6)8(9)10/h2-5H,1H3",Copy,Cc1cccc([N+](=O)[O-])c1,,0.99,,,,
484,Trichloroethylene,InChI=1S/C2HCl3/c3-1-2(4)5/h1H,Copy,ClC=C(Cl)Cl,,0.4,,,,
485,"Benzene, 1-methyl-4-nitro-","InChI=1S/C7H7NO2/c1-6-2-4-7(5-3-6)8(9)10/h2-5H,1H3",Copy,Cc1ccc([N+](=O)[O-])cc1,,0.95,,,,
486,Benzaldehyde,InChI=1S/C7H6O/c8-6-7-4-2-1-3-5-7/h1-6H,Copy,O=Cc1ccccc1,,0.4293,,,,
487,"1,4-Naphthalenedione",InChI=1S/C10H6O2/c11-9-5-6-10(12)8-4-2-1-3-7(8)9/h1-6H,Copy,O=C1C=CC(=O)c2ccccc21,,1.81,,,,
488,"Methane, iodo-",InChI=1S/CH3I/c1-2/h1H3,Copy,CI,,0.11,,,,
489,"Benzene, bromopentafluoro-",InChI=1S/C6BrF5/c7-1-2(8)4(10)6(12)5(11)3(1)9,Copy,Fc1c(F)c(F)c(Br)c(F)c1F,,1.15,,,,
490,"Benzene, chloropentafluoro-",InChI=1S/C6ClF5/c7-1-2(8)4(10)6(12)5(11)3(1)9,Copy,Fc1c(F)c(F)c(Cl)c(F)c1F,,0.75,,,,
491,Benzonitrile,InChI=1S/C7H5N/c8-6-7-4-2-1-3-5-7/h1-5H,Copy,N#Cc1ccccc1,,0.26,,,,
492,Methyl radical,InChI=1S/CH3/h1H3,Copy,[CH3],,0.08,,,,
493,"Benzene, hexafluoro-",InChI=1S/C6F6/c7-1-2(8)4(10)6(12)5(11)3(1)9,Copy,Fc1c(F)c(F)c(F)c(F)c1F,,0.53,,,,
494,"Benzene, nitro-",InChI=1S/C6H5NO2/c8-7(9)6-4-2-1-3-5-6/h1-5H,Copy,O=[N+]([O-])c1ccccc1,,1.0,,,,
495,Toluene,,,CC1=CC=CC=C1,,,,1.98,oxidation,ACN
496,m-Xylene,,,CC1=CC(=CC=C1)C,,,,1.8400000000000003,oxidation,ACN
497,Mesitylene,,,CC1=CC(=CC(=C1)C)C,,,,1.69,oxidation,ACN
498,Naphthalene,,,C1=CC=C2C=CC=CC2=C1,,,,1.2599999999999998,oxidation,ACN
499,Phenylacetylene,,,C#CC1=CC=CC=C1,,,,1.89,oxidation,ACN
500,Diphenylacetylene,,,C1=CC=C(C=C1)C#CC2=CC=CC=C2,,,,1.46,oxidation,ACN
501,1-ethynyl-4-methoxybenzene,,,COC1=CC=C(C=C1)C#C,,,,1.27,oxidation,ACN
502,2-Methyl-1-pentene,,,CCCC(=C)C,,,,2.12,oxidation,ACN
503,Cyclohexene,,,C1CCC=CC1,,,,1.99,oxidation,ACN
504,Cyclopentene,,,C1CC=CC1,,,,1.94,oxidation,ACN
505,Norbornene,,,C1CC2CC1C=C2,,,,1.8400000000000003,oxidation,ACN
506,3-Methyl-2-buten-1-ol,,,CC(=CCO)C,,,,1.7200000000000002,oxidation,ACN
507,2-Methyl-2-butene,,,CC=C(C)C,,,,1.6,oxidation,ACN
508,Styrene,,,C=CC1=CC=CC=C1,,,,1.59,oxidation,ACN
509,2-Chloro-trans-β-methylstyrene,,,C=CC1=CC=CC=C1,,,,1.56,oxidation,ACN
510,1-Methylcyclohexene,,,CC1=CCCCC1,,,,1.56,oxidation,ACN
511,beta-Methylstyrene,,,C/C=C/C1=CC=CC=C1,,,,1.5299999999999998,oxidation,ACN
512,(E)-Methyl 4-(prop-1-en-1-yl)benzoate,,,C/C=C/C1=CC=C(C=C1)C(=O)OC,,,,1.56,oxidation,ACN
513,Indene,,,C1C=CC2=CC=CC=C21,,,,1.2799999999999998,oxidation,ACN
514,1-Phenylcyclohexene,,,C1CCC(=CC1)C2=CC=CC=C2,,,,1.2599999999999998,oxidation,ACN
515,trans-Anethole,,,C/C=C/C1=CC=C(C=C1)OC,,,,0.86,oxidation,ACN
516,4-Cyanophenol,,,C1=CC(=CC=C1C#N)O,,,,1.7000000000000002,oxidation,ACN
517,Isosafrole,,,C/C=C/C1=CC2=C(C=C1)OCO2,,,,0.7699999999999999,oxidation,ACN
518,4-Bromophenol,,,C1=CC(=CC=C1O)Br,,,,1.31,oxidation,ACN
519,Phenol,,,C1=CC=C(C=C1)O,,,,1.25,oxidation,ACN
520,Guaiacol,,,COC1=CC=CC=C1O,,,,1.0299999999999998,oxidation,ACN
521,2-Naphthol,,,C1=CC=C2C=C(C=CC2=C1)O,,,,1.02,oxidation,ACN
522,4-Methoxyphenol,,,COC1=CC=C(C=C1)O,,,,0.7899999999999999,oxidation,ACN
523,Hydroquinone,,,C1=CC(=CC=C1O)O,,,,0.7599999999999999,oxidation,ACN
524,Diphenyl ether,,,C1=CC=C(C=C1)OC2=CC=CC=C2,,,,1.5,oxidation,ACN
525,Anisole,,,COC1=CC=CC=C1,,,,1.4300000000000002,oxidation,ACN
526,m-Dimethoxybenzene,,,COC1=CC(=CC=C1)OC,,,,1.12,oxidation,ACN
527,o-Dimethoxybenzene,,,COC1=CC=CC=C1OC,,,,1.0499999999999998,oxidation,ACN
528,2-Methoxynaphthalene,,,COC1=CC2=CC=CC=C2C=C1,,,,0.94,oxidation,ACN
529,p-Dimethoxybenzene,,,COC1=CC=C(C=C1)OC,,,,0.92,oxidation,ACN
530,Diisopropylamine,,,CC(C)NC(C)C,,,,0.7100000000000001,oxidation,ACN
531,Aniline,,,C1=CC=C(C=C1)N,,,,0.57,oxidation,ACN
532,Piperidine,,,C1CCNCC1,,,,0.5599999999999999,oxidation,ACN
533,Diphenylamine,,,C1=CC=C(C=C1)NC2=CC=CC=C2,,,,0.54,oxidation,ACN
534,Pyrrolidine,,,C1CCNC1,,,,0.51,oxidation,ACN
535,N-Phenylmorpholine,,,C1COCCN1C2=CC=CC=C2,,,,0.5,oxidation,ACN
536,m-Anisidine,,,COC1=CC=CC(=C1)N,,,,0.48,oxidation,ACN
537,p-Toluidine,,,CC1=CC=C(C=C1)N,,,,0.43,oxidation,ACN
538,Triethylamine,,,CCN(CC)CC,,,,0.4499999999999999,oxidation,ACN
539,1-Morpholinocyclohexene,,,C1CCC(=CC1)N2CCOCC2,,,,0.16,oxidation,ACN
540,o-Phenylenediamine,,,C1=CC=C(C(=C1)N)N,,,,0.0999999999999999,oxidation,ACN
541,1-Cyclohex-1-enylpyrrolidine,,,C1CCC(=CC1)N2CCCC2,,,,-0.06,reduction,ACN
542,p-Nitrophenyl disulfide,,,C1=CC(=CC=C1[N+](=O)[O-])SSC2=CC=C(C=C2)[N+](=O)[O-],,,,1.64,oxidation,ACN
543,Phenyl disulfide,,,C1=CC=C(C=C1)SSC2=CC=CC=C2,,,,1.1800000000000002,oxidation,ACN
544,Thiphenol,,,C1=CC=C(C=C1)S,,,,1.13,oxidation,ACN
545,p-Tolyl disulfide,,,CC1=CC=C(C=C1)SSC2=CC=C(C=C2)C,,,,1.08,oxidation,ACN
546,Thioanisole,,,CSC1=CC=CC=C1,,,,1.06,oxidation,ACN
547,2-Naphthalenethiol,,,C1=CC=C2C=C(C=CC2=C1)S,,,,0.95,oxidation,ACN
548,p-Methoxyphenyl disulfide,,,COC1=CC=C(C=C1)SSC2=CC=C(C=C2)OC,,,,0.9,oxidation,ACN
549,4-Methoxythiophenol,,,COC1=CC=C(C=C1)S,,,,0.7699999999999999,oxidation,ACN
550,Pyrazole,,,C1=CNN=C1,,,,1.83,oxidation,ACN
551,Quinoline,,,C1=CC=C2C(=C1)C=CC=N2,,,,1.7600000000000002,oxidation,ACN
552,Furan,,,C1=COC=C1,,,,1.56,oxidation,ACN
553,Furfuryl alcohol,,,C1=COC(=C1)CO,,,,1.35,oxidation,ACN
554,Thianaphthene,,,C1=CC=C2C(=C1)C=CS2,,,,1.2400000000000002,oxidation,ACN
555,Indole,,,C1=CC=C2C(=C1)C=CN2,,,,0.7799999999999999,oxidation,ACN
556,Imidazole,,,C1=CN=CN1,,,,0.7699999999999999,oxidation,ACN
557,2-Mercaptobenzoxazole,,,C1=CC=C2C(=C1)NC(=S)O2,,,,0.6900000000000001,oxidation,ACN
558,N-Methylpyrrole,,,CN1C=CC=C1,,,,0.66,oxidation,ACN
559,5-Methoxyindole,,,COC1=CC2=C(C=C1)NC=C2,,,,0.66,oxidation,ACN
560,2-Mercaptobenzothiazole,,,C1=CC=C2C(=C1)NC(=S)S2,,,,0.65,oxidation,ACN
561,4-Methoxyindole,,,COC1=CC=CC2=C1C=CN2,,,,0.59,oxidation,ACN
562,2-Aminothiazole,,,C1=CSC(=N1)N,,,,0.57,oxidation,ACN
563,6-Methoxyindole,,,COC1=CC2=C(C=C1)C=CN2,,,,0.54,oxidation,ACN
564,2-Mercaptobenzimidazole,,,C1=CC=C2C(=C1)NC(=S)N2,,,,0.43,oxidation,ACN
565,Chlorobenzene,,,C1=CC=C(C=C1)Cl,,,,2.23,oxidation,ACN
566,Bromobenzene,,,C1=CC=C(C=C1)Br,,,,2.12,oxidation,ACN
567,Iodobenzene,,,C1=CC=C(C=C1)I,,,,1.79,oxidation,ACN
568,1-Fluoro-4-nitrobenzene,,,C1=CC(=CC=C1[N+](=O)[O-])F,,,,-1.61,reduction,ACN
569,Diiodomethane,,,C(I)I,,,,-2.2,reduction,ACN
570,Carbon tetrachloride,,,C(Cl)(Cl)(Cl)Cl,,,,-2.86,reduction,ACN
571,Dibromomethane,,,C(Br)Br,,,,-2.86,reduction,ACN
572,Ethyl 2-bromoacetate,,,CCOC(=O)CBr,,,,-1.46,reduction,ACN
573,Diethyl 2-bromomalonate,,,CCOC(=O)C(C(=O)OCC)Br,,,,-1.0,reduction,ACN
574,p-Anisaldehyde,,,COC1=CC=C(C=C1)C=O,,,,1.6800000000000002,oxidation,ACN
575,p-Hydroxybenzaldehyde,,,C1=CC(=CC=C1C=O)O,,,,1.5699999999999998,oxidation,ACN
576,p-Nitrobenzaldehyde,,,C1=CC(=CC=C1C=O)[N+](=O)[O-],,,,-1.24,reduction,ACN
577,p-Cyanobenzaldehyde,,,C1=CC(=CC=C1C=O)C#N,,,,-1.7999999999999998,reduction,ACN
578,p-Trifluoromethylbenzaldehyde,,,C1=CC(=CC=C1C=O)C(F)(F)F,,,,-2.04,reduction,ACN
579,Biphenyl-4-carboxaldehyde,,,C1=CC=C(C=C1)C2=CC=C(C=C2)C=O,,,,-2.1,reduction,ACN
580,2-Naphthaldehyde,,,C1=CC=C2C=C(C=CC2=C1)C=O,,,,-2.11,reduction,ACN
581,p-Chlorobenzaldehyde,,,C1=CC(=CC=C1C=O)Cl,,,,-2.23,reduction,ACN
582,Benzaldehyde,,,C1=CC=C(C=C1)C=O,,,,-2.31,reduction,ACN
583,o-Tolualdehyde,,,CC1=CC=CC=C1C=O,,,,-2.32,reduction,ACN
584,3-Methylbutyraldehyde,,,CC(C)CC=O,,,,-2.62,reduction,ACN
585,Cyclohexanecarboxaldehyde,,,C1CCC(CC1)C=O,,,,-2.66,reduction,ACN
586,Benzaldoxime,,,C1=CC=C(C=C1)/C=N\O,,,,1.48,oxidation,ACN
587,p-Dicyanobenzene,,,C1=CC(=CC=C1C#N)C#N,,,,-2.02,reduction,ACN
588,o-Dicyanobenzene,,,C1=CC=C(C(=C1)C#N)C#N,,,,-2.08,reduction,ACN
589,m-Dicyanobenzene,,,C1=CC(=CC(=C1)C#N)C#N,,,,-2.28,reduction,ACN
590,Benzonitrile,,,C1=CC=C(C=C1)C#N,,,,-2.81,reduction,ACN
591,Methyl 4-cyanobenzoate,,,COC(=O)C1=CC=C(C=C1)C#N,,,,-2.1,reduction,ACN
592,Methyl benzoate,,,COC(=O)C1=CC=CC=C1,,,,-2.72,reduction,ACN
593,Benzoic acid,,,C1=CC=C(C=C1)C(=O)O,,,,-2.67,reduction,ACN
594,2-Nitrobenzenesulfonyl chloride,,,C1=CC=C(C(=C1)[N+](=O)[O-])S(=O)(=O)Cl,,,,-0.89,reduction,ACN
595,Benzoyl chloride,,,C1=CC=C(C=C1)C(=O)Cl,,,,-1.58,reduction,ACN
596,p-Toluenesulfonyl chloride,,,CC1=CC=C(C=C1)S(=O)(=O)Cl,,,,-1.75,reduction,ACN
597,2-Mesitylenesulfonyl chloride,,,CC1=CC(=C(C(=C1)C)S(=O)(=O)Cl)C,,,,-1.83,reduction,ACN
598,Trifluoroacetic anhydride,,,C(=O)(C(F)(F)F)OC(=O)C(F)(F)F,,,,-0.5800000000000001,reduction,ACN
599,Maleic anhydride,,,C1=CC(=O)OC1=O,,,,-1.36,reduction,ACN
600,Benzoic anhydride,,,C1=CC=C(C=C1)C(=O)OC(=O)C2=CC=CC=C2,,,,-1.39,reduction,ACN
601,Phthalic anhydride,,,C1=CC=C2C(=C1)C(=O)OC2=O,,,,-1.7200000000000002,reduction,ACN
602,Cyclohexyl methyl ketone,,,CC(=O)C1CCCCC1,,,,2.28,oxidation,ACN
603,4'-Nitroacetophenone,,,CC(=O)C1=CC=C(C=C1)[N+](=O)[O-],,,,-1.31,reduction,ACN
604,4'-Trifluoromethylacetophenone,,,CC(=O)C1=CC=C(C=C1)C(F)(F)F,,,,-2.12,reduction,ACN
605,4'-Iodoacetophenone,,,CC(=O)C1=CC=C(C=C1)I,,,,-2.23,reduction,ACN
606,4'-Bromoacetophenone,,,CC(=O)C1=CC=C(C=C1)Br,,,,-2.27,reduction,ACN
607,4'-Chloroacetophenone,,,CC(=O)C1=CC=C(C=C1)Cl,,,,-2.29,reduction,ACN
608,4-Acetylbiphenyl,,,CC(=O)C1=CC=C(C=C1)C2=CC=CC=C2,,,,-2.29,reduction,ACN
609,Acetophenone,,,CC(=O)C1=CC=CC=C1,,,,-2.49,reduction,ACN
610,4'-Fluoroacetophenone,,,CC(=O)C1=CC=C(C=C1)F,,,,-2.51,reduction,ACN
611,4'-Methylacetophenone,,,CC1=CC=C(C=C1)C(=O)C,,,,-2.54,reduction,ACN
612,Cyclohexanone,,,C1CCC(=O)CC1,,,,-2.71,reduction,ACN