,Name,InChI,CAS Link,smiles,IE / eV,EA / eV,pubchem_smiles,E12,Reaction,Solvent
613,Triphenylsilane,,,C1=CC=C(C=C1)[Si](C2=CC=CC=C2)C3=CC=CC=C3,,,,2.04,oxidation,ACN
614,Chlorotriphenylsilane,,,C1=CC=C(C=C1)[Si](C2=CC=CC=C2)(C3=CC=CC=C3)Cl,,,,2.03,oxidation,ACN
615,Nitrobenzene,,,C1=CC=C(C=C1)[N+](=O)[O-],,,,-1.5699999999999998,reduction,ACN
616,N-Chlorosuccinimide,,,C1CC(=O)N(C1=O)Cl,,,,-0.65,reduction,ACN
617,"2,4-Dimethyl-1,3-pentadiene",,,CC(=CC(=C)C)C,,,,1.6,oxidation,ACN
618,(E)-1-Chloro-3-(prop-1-en-1-yl)benzene,,,C/C=C/C1=CC(=CC=C1)Cl,,,,1.5099999999999998,oxidation,ACN
619,(E)-1-Bromo-3-(prop-1-en-1-yl)benzene,,,C/C=C/C1=CC(=CC=C1)Br,,,,1.54,oxidation,ACN
620,1-Methylcyclopentene,,,CC1=CCCC1,,,,1.37,oxidation,ACN
621,1-bromo-4-[(E)-prop-1-enyl]benzene,,,C/C=C/C1=CC=C(C=C1)Br,,,,1.37,oxidation,ACN
622,1-methyl-3-prop-1-enylbenzene,,,CC=CC1=CC=CC(=C1)C,,,,1.35,oxidation,ACN
623,1-Chloro-4-(prop-1-en-1-yl)benzene,,,CC=CC1=CC=C(C=C1)Cl,,,,1.35,oxidation,ACN
624,1-methyl-2-[(E)-prop-1-enyl]benzene,,,C/C=C/C1=CC=CC=C1C,,,,1.3199999999999998,oxidation,ACN
625,1-tert-butyl-4-(prop-1-en-1-yl)benzene,,,CC=CC1=CC=C(C=C1)C(C)(C)C,,,,1.27,oxidation,ACN
626,"1,2-bis(prop-1-enyl)benzene",,,CC=CC1=CC=CC=C1C=CC,,,,1.2599999999999998,oxidation,ACN
627,(E)-1-Methoxy-3-(prop-1-en-1-yl)benzene,,,C/C=C/C1=CC(=CC=C1)OC,,,,1.2200000000000002,oxidation,ACN
628,"1,1-Diphenylethylene",,,C=C(C1=CC=CC=C1)C2=CC=CC=C2,,,,1.16,oxidation,ACN
629,"1,4-Dipropylbenzene",,,CCCC1=CC=C(C=C1)CCC,,,,1.0499999999999998,oxidation,ACN
630,"3,4-Dimethoxystyrene",,,COC1=C(C=C(C=C1)C=C)OC,,,,0.7699999999999999,oxidation,ACN
631,"1,4-Dioxane",,,C1COCCO1,,,,2.12,oxidation,ACN
632,"3,4-Dihydro-2H-pyran",,,C1CC=COC1,,,,1.13,oxidation,ACN
633,"1,8-Diazabicyclo[5.4.0]undec-7-ene",,,C1CCC2=NCCCN2CC1,,,,0.9,oxidation,ACN
634,"N,N-Dimethylaniline",,,CN(C)C1=CC=CC=C1,,,,0.36,oxidation,ACN
635,"2,6-Dimethylthiophenol",,,CC1=C(C(=CC=C1)C)S,,,,1.06,oxidation,ACN
636,"1,4-Benzenedithiol",,,C1=CC(=CC=C1S)S,,,,0.7799999999999999,oxidation,ACN
637,"2,3-Benzofuran",,,C1=CC=C2C(=C1)C=CO2,,,,1.36,oxidation,ACN
638,"N,N-Dimethylformamide",,,CN(C)C=O,,,,1.88,oxidation,ACN
639,"1,3-Dimethyl-3,4,5,6-tetrahydro-2(1H)-pyrimidone",,,CN1CCCN(C1=O)C,,,,1.17,oxidation,ACN
640,"1,2-xylene",,,Cc1ccccc1C,,,,1.8400000000000003,oxidation,ACN
641,"4-ethenyl-1,2-dimethylbenzene",,,C=Cc1ccc(C)c(C)c1,,,,0.7699999999999999,oxidation,ACN
642,"1,4-bis(prop-1-enyl)benzene",,,CC=Cc1ccc(C=CC)cc1,,,,1.0499999999999998,oxidation,ACN
643,"cyclohexa-1,3-diene",,,C1=CCCC=C1,,,,1.16,oxidation,ACN
644,"1,3-bis(prop-1-enyl)benzene",,,CC=Cc1cccc(C=CC)c1,,,,1.2799999999999998,oxidation,ACN
645,prop-1-en-2-ylbenzene,,,C=C(C)c1ccccc1,,,,1.5299999999999998,oxidation,ACN
646,bicyclo[2.2.1]heptane,,,C1CC2CCC1C2,,,,1.8400000000000003,oxidation,ACN
647,"1,3-di(propan-2-yloxy)benzene",,,CC(C)Oc1cccc(OC(C)C)c1,,,,1.09,oxidation,ACN
648,"2,6-di(propan-2-yl)aniline",,,CC(C)c1cccc(C(C)C)c1N,,,,0.4599999999999999,oxidation,ACN
649,1-phenylpyrrolidine,,,c1ccc(N2CCCC2)cc1,,,,0.5,oxidation,ACN
650,1-chloro-4-iodobenzene,,,Clc1ccc(I)cc1,,,,-2.32,reduction,ACN
651,1-bromo-4-iodobenzene,,,Brc1ccc(I)cc1,,,,-2.33,reduction,ACN
652,"1,2-dichloroethane",,,ClCCCl,,,,-2.3,reduction,ACN
653,2-bromo-1-phenylethanone,,,O=C(CBr)c1ccccc1,,,,-1.84,reduction,ACN
654,benzoate,,,O=C([O-])c1ccccc1,,,,1.02,oxidation,ACN
655,piperidin-2-one,,,O=C1CCCCN1,,,,2.2,oxidation,ACN
656,oxolan-2-one,,,O=C1CCCO1,,,,-2.51,reduction,ACN
657,"3,5-bis(trifluoromethyl)benzenesulfonyl chloride",,,O=S(=O)(Cl)c1cc(C(F)(F)F)cc(C(F)(F)F)c1,,,,-0.8300000000000001,reduction,ACN
658,anthracene,,,c1ccc2cc3ccccc3cc2c1,,,,-2.3,reduction,DMF
659,diphenyldiazene,,,c1ccc(/N=N/c2ccccc2)cc1,,,,-1.7400000000000002,reduction,DMF
660,diphenylmethanone,,,O=C(c1ccccc1)c1ccccc1,,,,-2.26,reduction,ACN
661,"2-[4-(dicyanomethylidene)cyclohexa-2,5-dien-1-ylidene]propanedinitrile",,,N#CC(C#N)=c1ccc(=C(C#N)C#N)cc1,,,,-0.25,reduction,ACN
662,"2-(1,3-dithiol-2-ylidene)-1,3-dithiole",,,C1=CSC(=C2SC=CS2)S1,,,,0.28,oxidation,ACN
663,n-Pentane,,,CCCCC,,,,2.76,oxidation,ACN
664,2-Methylpentane,,,CCCC(C)C,,,,2.89,oxidation,ACN
665,3-Methylpentane,,,CCC(C)CC,,,,2.8000000000000003,oxidation,ACN
666,"2,2-Dimethylbutane",,,CCC(C)(C)C,,,,3.16,oxidation,ACN
667,n-Hexane,,,CCCCCC,,,,2.72,oxidation,ACN
668,n-Heptane,,,CCCCCCC,,,,2.68,oxidation,ACN
669,n-Octane,,,CCCCCCCC,,,,2.76,oxidation,ACN
670,Bicyclo(1.1.0)butane,,,C1C2C1C2,,,,1.2999999999999998,oxidation,ACN
671,"Bicyclo[1.1.0]butane, 1-methyl-",,,CC12CC1C2,,,,1.08,oxidation,ACN
672,"1,3-Dimethylbicyclo(1.1.0)butane",,,CC12CC1(C2)C,,,,0.7100000000000001,oxidation,ACN
673,"2,2-dimethylbicyclo[1.1.0]butane",,,CC1(C2C1C2)C,,,,1.17,oxidation,ACN
674,"1,2,2-trimethylbicyclo[1.1.0]butane",,,CC1(C2C1(C2)C)C,,,,0.88,oxidation,ACN
675,"1,2,2,3-tetramethylbicyclo[1.1.0]butane",,,CC1(C2(C1(C2)C)C)C,,,,0.64,oxidation,ACN
676,"2,2,4,4-tetramethylbicyclo[1.1.0]butane",,,CC1(C2C1C2(C)C)C,,,,1.1800000000000002,oxidation,ACN
677,"1,2,2,3,4,4-hexamethylbicyclo[1.1.0]butane",,,CC1(C2(C1(C2(C)C)C)C)C,,,,0.5399999999999999,oxidation,ACN
678,Cyclobutane,,,C1CCC1,,,,1.52,oxidation,ACN
679,"Tricyclo(2.2.1.02,6)heptane",,,C1C2CC3C1C3C2,,,,1.73,oxidation,ACN
680,bicyclo[3.1.1]heptane,,,C1CC2CC(C1)C2,,,,1.11,oxidation,ACN
681,"Pentacyclo[3.3.0.02,4.03,7.06,8]octane",,,C12C3C4C3C5C4C1C25,,,,1.15,oxidation,ACN
682,"Pentacyclo[4.3.0.02,4.03,8.05,7]nonane",,,C1C2C3C4C1C5C2C5C34,,,,1.23,oxidation,ACN
683,"Pentacyclo(4.2.0.02,5.03,8.04,7)octane",,,C12C3C4C1C5C2C3C45,,,,1.34,oxidation,ACN
684,"Pentacyclo(4.3.0.02,5.03,8.04,7)nonane",,,C1C2C3C4C1C5C2C3C45,,,,1.35,oxidation,ACN
685,Adamantane,,,C1C2CC3CC1CC(C2)C3,,,,2.3000000000000003,oxidation,ACN
686,Ethylene,,,C=C,,,,2.78,oxidation,ACN
687,Propene,,,CC=C,,,,2.58,oxidation,ACN
688,2-methylprop-1-ene,,,CC(=C)C,,,,2.53,oxidation,ACN
689,1-Butene,,,CCC=C,,,,2.54,oxidation,ACN
690,2-methylbut-1-ene,,,CCC(=C)C,,,,1.85,oxidation,ACN
691,"buta-1,3-diene",,,C=CC=C,,,,1.91,oxidation,ACN
692,"2,3-dimethylbuta-1,3-diene",,,CC(=C)C(=C)C,,,,1.7200000000000002,oxidation,ACN
693,1-Pentene,,,CCCC=C,,,,2.62,oxidation,ACN
694,1-Octene,,,CCCCCCC=C,,,,2.58,oxidation,ACN
695,2-Octene,,,CCCCC/C=C/C,,,,2.1100000000000003,oxidation,ACN
696,"cyclohexa-1,4-diene",,,C1C=CCC=C1,,,,1.48,oxidation,ACN
697,"bicyclo[2.2.1]hepta-2,5-diene",,,C1C2C=CC1C=C2,,,,1.17,oxidation,ACN
698,Benzene,,,C1=CC=CC=C1,,,,2.02,oxidation,ACN
699,p-Xylene,,,CC1=CC=C(C=C1)C,,,,1.5,oxidation,ACN
700,Ethylbenzene,,,CCC1=CC=CC=C1,,,,1.9,oxidation,ACN
701,1-Propylbenzene,,,CCCC1=CC=CC=C1,,,,1.91,oxidation,ACN
702,t-Butylbenzene,,,CC(C)(C)C1=CC=CC=C1,,,,1.81,oxidation,ACN
703,Cyclohexylbenzene,,,C1CCC(CC1)C2=CC=CC=C2,,,,1.8000000000000005,oxidation,ACN
704,"1,2,3-trimethylbenzene",,,CC1=C(C(=CC=C1)C)C,,,,1.5300000000000002,oxidation,ACN
705,"1,2,4-trimethylbenzene",,,CC1=CC(=C(C=C1)C)C,,,,1.5100000000000002,oxidation,ACN
706,"1,2,3,5-tetramethylbenzene",,,CC1=CC(=C(C(=C1)C)C)C,,,,1.44,oxidation,ACN
707,"1,2,4,5-tetramethylbenzene",,,CC1=CC(=C(C=C1C)C)C,,,,1.17,oxidation,ACN
708,"1,2,3,4,5-pentamethylbenzene",,,CC1=CC(=C(C(=C1C)C)C)C,,,,1.16,oxidation,ACN
709,"1,2,3,4,5,6-hexamethylbenzene",,,CC1=C(C(=C(C(=C1C)C)C)C)C,,,,1.08,oxidation,ACN
710,cyclopropylbenzene,,,C1CC1C2=CC=CC=C2,,,,1.4500000000000002,oxidation,ACN
711,1-cyclopropyl-4-methylbenzene,,,CC1=CC=C(C=C1)C2CC2,,,,1.2000000000000002,oxidation,ACN
712,trans-1-Methyl-2-phenylcyclopropane,,,C[C@@H]1C[C@H]1C2=CC=CC=C2,,,,1.2999999999999998,oxidation,ACN
713,"(2,2-dimethylcyclopropyl)benzene",,,CC1(CC1C2=CC=CC=C2)C,,,,1.36,oxidation,ACN
714,"1,2,3,4-tetrahydronaphthalene",,,C1CCC2=CC=CC=C2C1,,,,1.5100000000000002,oxidation,ACN
715,azulene,,,C1=CC=C2C=CC=C2C=C1,,,,0.5499999999999999,oxidation,ACN
716,1-methylnaphthalene,,,CC1=CC=CC2=CC=CC=C12,,,,1.06,oxidation,ACN
717,2-methylnaphthalene,,,CC1=CC2=CC=CC=C2C=C1,,,,1.04,oxidation,ACN
718,"2,6-dimethylnaphthalene",,,CC1=CC2=C(C=C1)C=C(C=C2)C,,,,0.97,oxidation,ACN
719,acenaphthylene,,,C1=CC2=C3C(=C1)C=CC3=CC=C2,,,,0.89,oxidation,ACN
720,n-Propylamine,,,CCCN,,,,1.0,oxidation,ACN
721,Diethylamine,,,CCNCC,,,,0.89,oxidation,ACN
722,n-Butylamine,,,CCCCN,,,,1.0,oxidation,ACN
723,i-Butylamine,,,CC(C)CN,,,,0.99,oxidation,ACN
724,t-Butylamine,,,CC(C)(C)N,,,,1.0099999999999998,oxidation,ACN
725,n-Pentylamine,,,CCCCCN,,,,1.06,oxidation,ACN
726,n-Nonylamine,,,CCCCCCCCCN,,,,1.09,oxidation,ACN
727,Di-n-propylamine,,,CCCNCCC,,,,0.7999999999999999,oxidation,ACN
728,Di-n-butylamine,,,CCCCNCCCC,,,,0.7499999999999999,oxidation,ACN
729,Di-sec-butylamine,,,CCC(C)NC(C)CC,,,,0.7699999999999999,oxidation,ACN
730,Trimethylamine,,,CN(C)C,,,,0.66,oxidation,ACN
731,Tri-n-propylamine,,,CCCN(CCC)CCC,,,,0.39,oxidation,ACN
732,2-(dimethylamino)acetonitrile,,,CN(C)CC#N,,,,0.96,oxidation,ACN
733,4-methoxyaniline,,,COC1=CC=C(C=C1)N,,,,0.1999999999999999,oxidation,ACN
734,4-chloroaniline,,,C1=CC(=CC=C1N)Cl,,,,0.5399999999999999,oxidation,ACN
735,"N,N-dimethyl-1-phenylmethanamine",,,CN(C)CC1=CC=CC=C1,,,,0.61,oxidation,ACN
736,N-methylaniline,,,CNC1=CC=CC=C1,,,,0.5099999999999999,oxidation,ACN
737,"N,N-Dimethyl-4-nitroaniline",,,CN(C)C1=CC=C(C=C1)[N+](=O)[O-],,,,0.89,oxidation,ACN
738,N-ethylaniline,,,CCNC1=CC=CC=C1,,,,0.5299999999999999,oxidation,ACN
739,"2,3,5,6-tetramethylaniline",,,CC1=CC(=C(C(=C1C)N)C)C,,,,0.28,oxidation,ACN
740,"1-N,1-N,4-N,4-N-tetramethylbenzene-1,4-diamine",,,CN(C)C1=CC=C(C=C1)N(C)C,,,,-0.22,reduction,ACN
741,"1-N,1-N,3-N,3-N-tetramethylbenzene-1,3-diamine",,,CN(C)C1=CC(=CC=C1)N(C)C,,,,0.1999999999999999,oxidation,ACN
742,"1-N,1-N,2-N,2-N-tetramethylbenzene-1,2-diamine",,,CN(C)C1=CC=CC=C1N(C)C,,,,0.16,oxidation,ACN
743,"3-methoxy-N,N-dimethylaniline",,,CN(C)C1=CC(=CC=C1)OC,,,,0.37,oxidation,ACN
744,"4-methoxy-N,N-dimethylaniline",,,CN(C)C1=CC=C(C=C1)OC,,,,0.2099999999999999,oxidation,ACN
745,"2-methoxy-N,N-dimethylaniline",,,CN(C)C1=CC=CC=C1OC,,,,0.36,oxidation,ACN
746,"2,3,5,6-tetramethylbenzene-1,4-diamine",,,CC1=C(C(=C(C(=C1N)C)C)N)C,,,,-0.3,reduction,ACN
747,naphthalen-1-amine,,,C1=CC=C2C(=C1)C=CC=C2N,,,,0.2199999999999999,oxidation,ACN
748,naphthalen-2-amine,,,C1=CC=C2C=C(C=CC2=C1)N,,,,0.3199999999999999,oxidation,ACN
749,"1,4-diazabicyclo[2.2.2]octane",,,C1CN2CCN1CC2,,,,0.18,oxidation,ACN
750,"N,N-dimethyl-1-phenylethenamine",,,CN(C)C(=C)C1=CC=CC=C1,,,,0.3099999999999999,oxidation,ACN
751,CH3OH,,,CO,,,,2.79,oxidation,ACN
752,ethanol,,,CCO,,,,2.5700000000000003,oxidation,ACN
753,propan-2-ol,,,CC(C)O,,,,2.56,oxidation,ACN
754,butan-1-ol,,,CCCCO,,,,2.62,oxidation,ACN
755,butan-2-ol,,,CCC(C)O,,,,2.6100000000000003,oxidation,ACN
756,pentan-1-ol,,,CCCCCO,,,,2.52,oxidation,ACN
757,CH2OH,,,[CH2]O,,,,1.5100000000000002,oxidation,ACN
758,"1,2,3-trimethoxybenzene",,,COC1=C(C(=CC=C1)OC)OC,,,,1.0299999999999998,oxidation,ACN
759,"1,2,4-trimethoxybenzene",,,COC1=CC(=C(C=C1)OC)OC,,,,0.7300000000000001,oxidation,ACN
760,"1,3,5-trimethoxybenzene",,,COC1=CC(=CC(=C1)OC)OC,,,,1.1,oxidation,ACN
761,1-cyclopropyl-4-methoxybenzene,,,COC1=CC=C(C=C1)C2CC2,,,,0.96,oxidation,ACN
762,1-ethyl-4-methoxybenzene,,,CCC1=CC=C(C=C1)OC,,,,1.0699999999999998,oxidation,ACN
763,"1,3-benzodioxole",,,C1OC2=CC=CC=C2O1,,,,1.0299999999999998,oxidation,ACN
764,"1,3-benzodioxole-5-carboxylic acid",,,C1OC2=C(O1)C=C(C=C2)C(=O)O,,,,1.2400000000000002,oxidation,ACN
765,"1,3-benzodioxole-5-carbaldehyde",,,C1OC2=C(O1)C=C(C=C2)C=O,,,,1.2599999999999998,oxidation,ACN
766,2-(4-methoxyphenyl)acetic acid,,,COC1=CC=C(C=C1)CC(=O)O,,,,1.1800000000000002,oxidation,ACN
767,"3,3-dimethylbutan-2-one",,,CC(=O)C(C)(C)C,,,,2.03,oxidation,ACN
768,3-methylbutan-2-one,,,CC(C)C(=O)C,,,,2.12,oxidation,ACN
769,"2,4-dimethylpentan-3-one",,,CC(C)C(=O)C(C)C,,,,2.01,oxidation,ACN
770,phenyl formate,,,C1=CC=C(C=C1)OC=O,,,,1.58,oxidation,ACN
771,1-chloro-4-cyclopropylbenzene,,,C1CC1C2=CC=C(C=C2)Cl,,,,1.58,oxidation,ACN
772,p-Chlorotoluene,,,CC1=CC=C(C=C1)Cl,,,,1.7000000000000002,oxidation,ACN
773,"N,N-dimethylacetamide",,,CC(=O)N(C)C,,,,1.7000000000000002,oxidation,ACN
774,"N,N-dimethylbenzamide",,,CN(C)C(=O)C1=CC=CC=C1,,,,1.65,oxidation,ACN
775,1-(methoxymethyl)piperidine,,,COCN1CCCCC1,,,,1.4900000000000002,oxidation,ACN
776,methyl piperidine-1-carboxylate,,,COC(=O)N1CCCCC1,,,,1.5700000000000005,oxidation,ACN
777,trimethyl(prop-2-enyl)silane,,,C[Si](C)(C)CC=C,,,,1.11,oxidation,ACN
778,trimethyl(3-methylbut-2-enyl)silane,,,CC(=CC[Si](C)(C)C)C,,,,1.0,oxidation,ACN
779,1-ethoxyethenoxy(trimethyl)silane,,,CCOC(=C)O[Si](C)(C)C,,,,0.89,oxidation,ACN
780,(1-methoxy-2-methylprop-1-enoxy)-trimethylsilane,,,CC(=C(OC)O[Si](C)(C)C)C,,,,0.5099999999999999,oxidation,ACN
781,phenysilane,,,C1=CC=C(C=C1)[SiH3],,,,2.0,oxidation,ACN
782,1-Methyl-4-silylbenzene,,,CC1=CC=C(C=C1)[SiH3],,,,1.88,oxidation,ACN
783,"(2,4,6-trimethylphenyl)silane",,,CC1=CC(=C(C(=C1)C)[SiH3])C,,,,1.7800000000000002,oxidation,ACN
784,"N,N-Dimethyl-4-silylaniline",,,CN(C)C1=CC=C(C=C1)[SiH3],,,,0.68,oxidation,ACN
785,Benzyltrimethylsilane,,,C[Si](C)(C)CC1=CC=CC=C1,,,,0.99,oxidation,ACN
786,trimethyl(phenylsulfanylmethyl)silane,,,C[Si](C)(C)CSC1=CC=CC=C1,,,,1.09,oxidation,ACN
787,N-[(Trimethylsilyl)methyl]aniline,,,C[Si](C)(C)CNC1=CC=CC=C1,,,,0.38,oxidation,ACN
788,propane-1-thiol,,,CCCS,,,,1.08,oxidation,ACN
789,butane-1-thiol,,,CCCCS,,,,1.2799999999999998,oxidation,ACN
790,methylsulfanylmethane,,,CSC,,,,1.14,oxidation,ACN
791,ethylsulfanylethane,,,CCSCC,,,,1.29,oxidation,ACN
792,methylsulfinylmethane,,,CS(=O)C,,,,1.6100000000000003,oxidation,ACN
793,"N,N-dimethylmethanesulfonamide",,,CN(C)S(=O)(=O)C,,,,1.6800000000000002,oxidation,ACN
794,Pyrrole,,,C1=CNC=C1,,,,0.7000000000000001,oxidation,ACN
795,Pyridine,,,C1=CC=NC=C1,,,,1.7600000000000002,oxidation,ACN
796,Thiophene,,,C1=CSC=C1,,,,1.54,oxidation,ACN
797,2-tert-butyl-1H-pyrrole,,,CC(C)(C)C1=CC=CN1,,,,0.7300000000000001,oxidation,ACN
798,4-nitro-1-oxidopyridin-1-ium,,,C1=C[N+](=CC=C1[N+](=O)[O-])[O-],,,,1.7400000000000002,oxidation,ACN
799,1-oxidopyridin-1-ium-4-carbonitrile,,,C1=C[N+](=CC=C1C#N)[O-],,,,1.88,oxidation,ACN
800,Nicotinonitrile 1-oxide,,,C1=CC(=C[N+](=C1)[O-])C#N,,,,1.62,oxidation,ACN
801,4-chloropyridine N-oxide,,,C1=C[N+](=CC=C1Cl)[O-],,,,1.4,oxidation,ACN
802,1-oxidopyridin-1-ium,,,C1=CC=[N+](C=C1)[O-],,,,1.41,oxidation,ACN
803,4-methyl-1-oxidopyridin-1-ium,,,CC1=CC=[N+](C=C1)[O-],,,,1.2200000000000002,oxidation,ACN
804,3-methyl-1-oxidopyridin-1-ium,,,CC1=C[N+](=CC=C1)[O-],,,,1.4,oxidation,ACN
805,4-methoxy-1-oxidopyridin-1-ium,,,COC1=CC=[N+](C=C1)[O-],,,,0.97,oxidation,ACN
806,"N,N-dimethyl-1-oxidopyridin-1-ium-4-amine",,,CN(C)C1=CC=[N+](C=C1)[O-],,,,0.37,oxidation,ACN
807,3-methoxy-1-oxidopyridin-1-ium,,,COC1=C[N+](=CC=C1)[O-],,,,1.33,oxidation,ACN
808,3-chloro-1-oxidopyridin-1-ium,,,C1=CC(=C[N+](=C1)[O-])Cl,,,,1.5100000000000002,oxidation,ACN
809,ethyl 1-oxidopyridin-1-ium-3-carboxylate,,,CCOC(=O)C1=C[N+](=CC=C1)[O-],,,,1.5300000000000002,oxidation,ACN
810,ethyl 1-oxidopyridin-1-ium-4-carboxylate,,,CCOC(=O)C1=CC=[N+](C=C1)[O-],,,,1.5900000000000003,oxidation,ACN
811,4-ethyl-1-oxidopyridin-1-ium,,,CCC1=CC=[N+](C=C1)[O-],,,,1.1800000000000002,oxidation,ACN
812,2-(1H-pyrrol-2-yl)-1H-pyrrole,,,C1=CNC(=C1)C2=CC=CN2,,,,0.2099999999999999,oxidation,ACN
813,2-methyl-5-(1H-pyrrol-2-yl)-1H-pyrrole,,,CC1=CC=C(N1)C2=CC=CN2,,,,0.0699999999999999,oxidation,ACN
814,2-methyl-5-(5-methyl-1H-pyrrol-2-yl)-1H-pyrrole,,,CC1=CC=C(N1)C2=CC=C(N2)C,,,,-0.0899999999999999,reduction,ACN
815,2-methyl-1H-benzimidazole,,,CC1=NC2=CC=CC=C2N1,,,,0.99,oxidation,ACN
816,"1,2,3-Trimethyl-1H-benzimidazolium",,,CC1=[N+](C2=CC=CC=C2N1C)C,,,,1.91,oxidation,ACN
817,1-Ethylquinolinium,,,CC[N+]1=CC=CC2=CC=CC=C21,,,,2.19,oxidation,ACN
818,"1,1-dimethylhydrazine",,,CN(C)N,,,,-0.2,reduction,ACN
819,"1,1,2,2-tetramethylhydrazine",,,CN(C)N(C)C,,,,-0.1099999999999999,reduction,ACN
820,"1,1,2-trimethyl-2-propylhydrazine",,,CCCN(C)N(C)C,,,,-0.12,reduction,ACN
821,Butyltrimethylhydrazine,,,CCCCN(C)N(C)C,,,,-0.12,reduction,ACN
822,"1,1-dimethyl-2,2-dipropylhydrazine",,,CCCN(CCC)N(C)C,,,,-0.14,reduction,ACN
823,"N,N'-Diethyl-N,N'-dimethylhydrazine",,,CCN(C)N(C)CC,,,,-0.13,reduction,ACN
824,tert-Butyl trimethylhydrazine,,,CC(C)(C)N(C)N(C)C,,,,0.05,oxidation,ACN
825,"Hydrazine, 1,2-di-tert-butyl 1,2-dimethyl-",,,CC(C)(C)N(C)N(C)C(C)(C)C,,,,0.13,oxidation,ACN
826,"1-Pyrrolidinamine, N,N-dimethyl-",,,CN(C)N1CCCC1,,,,-0.27,reduction,ACN
827,"1-Piperidinamine, N,N-dimethyl-",,,CN(C)N1CCCCC1,,,,-0.0799999999999999,reduction,ACN
828,N-(N-Pyrrolidinyl)-piperidine,,,C1CCN(CC1)N2CCCC2,,,,-0.24,reduction,ACN
829,"Hexahydropyrazolo[1,2-a]pyrazole",,,C1CN2CCCN2C1,,,,-0.36,reduction,ACN
830,"1,2-dimethylpyrazolidine",,,CN1CCCN1C,,,,-0.33,reduction,ACN
831,"2,3-Diazabicyclo(2.2.2)octane, 2,3-dimethyl-",,,CN1C2CCC(N1C)CC2,,,,-0.29,reduction,ACN
832,"Pyridazine, hexahydro-1,2,3,6-tetramethyl-, cis-",,,CC1CCC(N(N1C)C)C,,,,-0.24,reduction,ACN
833,"1,2-dimethylhexahydropyridazine",,,CN1CCCCN1C,,,,-0.21,reduction,ACN
834,"1,2-Diazacyclohex-4-ene, 1,2-dimethyl-",,,CN1CC=CCN1C,,,,-0.1099999999999999,reduction,ACN
835,"1,6-Diazabicyclo(4.4.0)decane",,,C1CCN2CCCCN2C1,,,,-0.16,reduction,ACN
836,"3,4-diethyl-1,3,4-oxadiazolidine",,,CCN1COCN1CC,,,,0.17,oxidation,ACN
837,"1,2,4,5-Tetraazacyclohexane, 1,2,4,5-tetramethyl-",,,CN1CN(N(CN1C)C)C,,,,-0.0699999999999999,reduction,ACN
838,"2,3-Diazabicyclo[2.2.1]hept-2-ene",,,C1CC2CC1N=N2,,,,1.58,oxidation,ACN
839,"7,7-dimethyl-2,3-diazabicyclo[2.2.1]hept-2-ene",,,CC1(C2CCC1N=N2)C,,,,1.46,oxidation,ACN
840,"1,4-dimethyl-2,3-diazabicyclo[2.2.1]hept-2-ene",,,CC12CCC(C1)(N=N2)C,,,,1.2000000000000002,oxidation,ACN
841,"2,3-diazabicyclo[2.2.2]oct-2-ene",,,C1CC2CCC1N=N2,,,,1.06,oxidation,ACN
842,"1,4-Dimethyl-2,3-diaza-bicyclo(2.2.2)oct-2-ene",,,CC12CCC(CC1)(N=N2)C,,,,0.95,oxidation,ACN
843,"methyl 3,5,5-trimethyl-4,5-dihydro-3H-pyrazole-3-carboxylate",,,CC1(CC(N=N1)(C)C(=O)OC)C,,,,1.66,oxidation,ACN
844,"3,4-diazatricyclo[4.2.1.02,5]nona-3,7-diene",,,C1C2C=CC1C3C2N=N3,,,,1.91,oxidation,ACN
845,N-[(E)-diethylaminodiazenyl]-N-ethylethanamine,,,CCN(CC)/N=N/N(CC)CC,,,,-0.0699999999999999,reduction,ACN
846,"2,2'-Bipyridine",,,C1=CC=NC(=C1)C2=CC=CC=N2,,,,-3.6499999999999995,reduction,ACN
847,"1,10-phenanthroline",,,C1=CC2=C(C3=C(C=CC=N3)C=C2)N=C1,,,,-3.51,reduction,ACN
848,"3,3'-Azotoluene",,,CC1=CC(=CC=C1)N=NC2=CC=CC(=C2)C,,,,"-2.8999999999999995,-3.5299999999999994",reduction,ACN
849,"1,1'-Azonaphthalene",,,C1=CC=C2C(=C1)C=CC=C2N=NC3=CC=CC4=CC=CC=C43,,,,"-2.6499999999999995,-3.2099999999999995",reduction,ACN
850,"2,2'-Azonaphthalene",,,C1=CC=C2C=C(C=CC2=C1)N=NC3=CC4=CC=CC=C4C=C3,,,,"-2.7399999999999998,-3.2699999999999996",reduction,ACN
851,"4,4'-Azobiphenyl",,,C1=CC=C(C=C1)C2=CC=C(C=C2)N=NC3=CC=C(C=C3)C4=CC=CC=C4,,,,"-2.7399999999999998,-3.2899999999999996",reduction,ACN
852,"4,4'-Azopyridine",,,C1=CN=CC=C1N=NC2=CC=NC=C2,,,,"-2.32,-3.05",reduction,ACN
853,"2,3-Dimethylnaphthalene",,,CC1=CC2=CC=CC=C2C=C1C,,,,"0.993,1.253",oxidation,ACN
854,Indan,,,C1CC2=CC=CC=C2C1,,,,"1.503,1.933",oxidation,ACN
855,Tetracene,,,C1=CC=C2C=C3C=C4C=CC=CC4=CC3=CC2=C1,,,,"0.453,1.113",oxidation,ACN
856,"1,2-Benzanthracene",,,C1=CC=C2C(=C1)C=CC3=CC4=CC=CC=C4C=C32,,,,"0.913,1.003",oxidation,ACN
857,Pyrene,,,C1=CC2=C3C(=C1)C=CC4=CC=CC(=C43)C=C2,,,,"0.973,1.153",oxidation,ACN
858,Chrysene,,,C1=CC=C2C(=C1)C=CC3=C2C=CC4=CC=CC=C43,,,,"1.133,1.183",oxidation,ACN
859,Triphenylene,,,C1=CC=C2C(=C1)C3=CC=CC=C3C4=CC=CC=C24,,,,"1.373,1.463",oxidation,ACN
860,"1,2,5,6-Dibenzanthracene",,,C1=CC=C2C(=C1)C=CC3=CC4=C(C=CC5=CC=CC=C54)C=C32,,,,"0.913,1.173",oxidation,ACN
861,Phenoxathiin,,,C1=CC=C2C(=C1)OC3=CC=CC=C3S2,,,,"0.738,1.233",oxidation,ACN
862,Thianthrene,,,C1=CC=C2C(=C1)SC3=CC=CC=C3S2,,,,"0.778,1.103",oxidation,ACN
863,"3,4-Dimethoxypropenylbenzene",,,C/C=C/C1=CC(=C(C=C1)OC)OC,,,,"0.600,0.820,1.020",oxidation,ACN
864,p-Nitro aniline,,,C1=CC(=CC=C1N)[N+](=O)[O-],,,,"0.590,0.760",oxidation,ACN
865,9-Amino-10-phenylanthracene,,,C1=CC=C(C=C1)C2=C3C=CC=CC3=C(C4=CC=CC=C42)N,,,,"0.083,0.933",oxidation,ACN
866,N-Methylphenothiazine,,,CN1C2=CC=CC=C2SC3=CC=CC=C31,,,,"0.313,0.883",oxidation,ACN