,Name,InChI,CAS Link,smiles,IE / eV,EA / eV,pubchem_smiles,E12,Reaction,Solvent
867,Persantine,,,C1CCN(CC1)C2=NC(=NC3=C2N=C(N=C3N4CCCCC4)N(CCO)CCO)N(CCO)CCO,,,,"0.133,0.383",oxidation,ACN
868,"9,10-Dibromoanthracene",,,C1=CC=C2C(=C1)C(=C3C=CC=CC3=C2Br)Br,,,,"1.063,1.383",oxidation,ACN
869,p-Methoxybenzyl alcohol,,,COC1=CC=C(C=C1)CO,,,,"1.133,1.553",oxidation,ACN
870,p-Iodobenzyl alcohol,,,C1=CC(=CC=C1CO)I,,,,"1.493,1.823",oxidation,ACN
871,Cinnamyl alcohol,,,C1=CC=C(C=C1)/C=C/CO,,,,"1.243,1.733",oxidation,ACN
872,p-Nitrocinnamyl alcohol,,,C1=CC(=CC=C1/C=C/CO)[N+](=O)[O-],,,,"1.273,1.683",oxidation,ACN
873,Hydrazobenzene,,,C1=CC=C(C=C1)NNC2=CC=CC=C2,,,,"0.093,1.263",oxidation,ACN
874,"4,4'-Dichlorohydrazobenzene",,,C1=CC(=CC=C1NNC2=CC=C(C=C2)Cl)Cl,,,,"0.173,1.353",oxidation,ACN
875,"5,10-dihydro-5,10-dimethylphenazine",,,CN1C2=CC=CC=C2N(C3=CC=CC=C31)C,,,,"-0.29,0.5",oxidation,ACN