,Name,InChI,CAS Link,smiles,IE / eV,EA / eV,pubchem_smiles,E12,Reaction,Solvent
0,Propanal,"InChI=1S/C3H6O/c1-2-3-4/h3H,2H2,1H3",Copy,CCC=O,9.96,,CCC=O,,,
1,Isoxazole,InChI=1S/C3H3NO/c1-2-4-5-3-1/h1-3H,Copy,c1cnoc1,10.0,,C1=CON=C1,,,
2,Isopropyl acetate,"InChI=1S/C5H10O2/c1-4(2)7-5(3)6/h4H,1-3H3",Copy,CC(=O)OC(C)C,9.99,,CC(C)OC(=O)C,,,
3,1-Butanol,"InChI=1S/C4H10O/c1-2-3-4-5/h5H,2-4H2,1H3",Copy,CCCCO,9.99,,CCCCO,,,
4,"Ethene, chloro-","InChI=1S/C2H3Cl/c1-2-3/h2H,1H2",Copy,C=CCl,9.99,,C=CCl,,,
5,p-Benzoquinone,InChI=1S/C6H4O2/c7-5-1-2-6(8)4-3-5/h1-4H,Copy,O=C1C=CC(=O)C=C1,10.0,,C1=CC(=O)C=CC1=O,,,
6,Ethyl Acetate,"InChI=1S/C4H8O2/c1-3-6-4(2)5/h3H2,1-2H3",Copy,CCOC(C)=O,10.01,,CCOC(=O)C,,,
7,"Butane, 2-bromo-","InChI=1S/C4H9Br/c1-3-4(2)5/h4H,3H2,1-2H3",Copy,CCC(C)Br,10.01,,CCC(C)Br,,,
8,"1-Propanol, 2-methyl-","InChI=1S/C4H10O/c1-4(2)3-5/h4-5H,3H2,1-2H3",Copy,CC(C)CO,10.02,,CC(C)CO,,,
9,Dimethyl ether,InChI=1S/C2H6O/c1-3-2/h1-2H3,Copy,COC,10.025,,COC,,,
10,1-Hexyne,"InChI=1S/C6H10/c1-3-5-6-4-2/h1H,4-6H2,2H3",Copy,C#CCCCC,10.03,,CCCCC#C,,,
11,Allyl chloride,"InChI=1S/C3H5Cl/c1-2-3-4/h2H,1,3H2",Copy,C=CCCl,10.05,,C=CCCl,,,
12,Fluoromethylene,InChI=1S/CHF/c1-2/h1H,Copy,[CH-]=[F+],10.06,,,,,
13,Carbon disulfide,InChI=1S/CS2/c2-1-3,Copy,S=C=S,10.073,,C(=S)=S,,,
14,"Propane, 1-bromo-2-methyl-","InChI=1S/C4H9Br/c1-4(2)3-5/h4H,3H2,1-2H3",Copy,CC(C)CBr,10.09,,CC(C)CBr,,,
15,"Pentane, 1-bromo-","InChI=1S/C5H11Br/c1-2-3-4-5-6/h2-5H2,1H3",Copy,CCCCCBr,10.1,,CCCCCBr,,,
16,1-Pentyne,"InChI=1S/C5H8/c1-3-5-4-2/h1H,4-5H2,2H3",Copy,C#CCCC,10.1,,CCCC#C,,,
17,"Propane, 2-bromo-","InChI=1S/C3H7Br/c1-3(2)4/h3H,1-2H3",Copy,CC(C)Br,10.1,,CC(C)Br,,,
18,2-Propenal,"InChI=1S/C3H4O/c1-2-3-4/h2-3H,1H2",Copy,C=CC=O,10.11,,C=CC=O,,,
19,"Butane, 1-bromo-","InChI=1S/C4H9Br/c1-2-3-4-5/h2-4H2,1H3",Copy,CCCCBr,10.13,,CCCCBr,,,
20,n-Hexane,"InChI=1S/C6H14/c1-3-5-6-4-2/h3-6H2,1-2H3",Copy,CCCCCC,10.13,,CCCCCC,,,
21,"Ethene, tetrafluoro-",InChI=1S/C2F4/c3-1(4)2(5)6,Copy,FC(F)=C(F)F,10.14,,C(=C(F)F)(F)F,,,
22,Methyl propionate,"InChI=1S/C4H8O2/c1-3-4(5)6-2/h3H2,1-2H3",Copy,CCC(=O)OC,10.15,,CCC(=O)OC,,,
23,Formamide,"InChI=1S/CH3NO/c2-1-3/h1H,(H2,2,3)",Copy,N=CO,10.16,,C(=O)N,,,
24,Butanoic acid,"InChI=1S/C4H8O2/c1-2-3-4(5)6/h2-3H2,1H3,(H,5,6)",Copy,CCCC(=O)O,10.17,,CCCC(=O)O,,,
25,Isopropyl Alcohol,"InChI=1S/C3H8O/c1-3(2)4/h3-4H,1-2H3",Copy,CC(C)O,10.17,,CC(C)O,,,
26,"Propane, 1-bromo-","InChI=1S/C3H7Br/c1-2-3-4/h2-3H2,1H3",Copy,CCCBr,10.18,,CCCBr,,,
27,1-Butyne,"InChI=1S/C4H6/c1-3-4-2/h1H,4H2,2H3",Copy,C#CCC,10.18,,CCC#C,,,
28,3-Butenenitrile,"InChI=1S/C4H5N/c1-2-3-4-5/h2H,1,3H2",Copy,C=CCC#N,10.2,,C=CCC#N,,,
29,1-Propanol,"InChI=1S/C3H8O/c1-2-3-4/h4H,2-3H2,1H3",Copy,CCCO,10.22,,CCCO,,,
30,Propylene oxide,"InChI=1S/C3H6O/c1-3-2-4-3/h3H,2H2,1H3",Copy,CC1CO1,10.22,,CC1CO1,,,
31,Acetaldehyde,"InChI=1S/C2H4O/c1-2-3/h2H,1H3",Copy,CC=O,10.229,,CC=O,,,
32,"Propanoic acid, 2-methyl-","InChI=1S/C4H8O2/c1-3(2)4(5)6/h3H,1-2H3,(H,5,6)",Copy,CC(C)C(=O)O,10.24,,CC(C)C(=O)O,,,
33,"Acetic acid, methyl ester",InChI=1S/C3H6O2/c1-3(4)5-2/h1-2H3,Copy,COC(C)=O,10.25,,CC(=O)OC,,,
34,Pentane,"InChI=1S/C5H12/c1-3-5-4-2/h3-5H2,1-2H3",Copy,CCCCC,10.28,,CCCCC,,,
35,"Methane, trifluoroiodo-","InChI=1S/CF3I/c2-1(3,4)5",Copy,FC(F)(F)I,10.28,,C(F)(F)(F)I,,,
36,Ethyl bromide,"InChI=1S/C2H5Br/c1-2-3/h2H2,1H3",Copy,CCBr,10.29,,CCBr,,,
37,"Ethene, 1,1-difluoro-",InChI=1S/C2H2F2/c1-2(3)4/h1H2,Copy,C=C(F)F,10.29,,C=C(F)F,,,
38,Carbon tetrabromide,"InChI=1S/CBr4/c2-1(3,4)5",Copy,BrC(Br)(Br)Br,10.31,,C(Br)(Br)(Br)Br,,,
39,"Acetylene, bromo-",InChI=1S/C2HBr/c1-2-3/h1H,Copy,C#CBr,10.31,,C#CBr,,,
40,"Butane, 2-methyl-","InChI=1S/C5H12/c1-4-5(2)3/h5H,4H2,1-3H3",Copy,CCC(C)C,10.32,,CCC(C)C,,,
41,Cyclopentane,InChI=1S/C5H10/c1-2-4-5-3-1/h1-5H2,Copy,C1CCCC1,10.33,,C1CCCC1,,,
42,"Ethane, 1,2-dibromo-",InChI=1S/C2H4Br2/c3-1-2-4/h1-2H2,Copy,BrCCBr,10.35,,C(CBr)Br,,,
43,Propyne,"InChI=1S/C3H4/c1-3-2/h1H,2H3",Copy,C#CC,10.36,,CC#C,,,
44,"Ethene, fluoro-","InChI=1S/C2H3F/c1-2-3/h2H,1H2",Copy,C=CF,10.36,,C=CF,,,
45,Methylene,InChI=1S/CH2/h1H2,Copy,[CH2],10.396,,[CH2],,,
46,"Methane, dibromo-",InChI=1S/CH2Br2/c2-1-3/h1H2,Copy,BrCBr,10.41,,C(Br)Br,,,
47,Propanoic acid,"InChI=1S/C3H6O2/c1-2-3(4)5/h2H2,1H3,(H,4,5)",Copy,CCC(=O)O,10.44,,CCC(=O)O,,,
48,Ethanol,"InChI=1S/C2H6O/c1-2-3/h3H,2H2,1H3",Copy,CCO,10.48,,CCO,,,
49,"Methane, tribromo-",InChI=1S/CHBr3/c2-1(3)4/h1H,Copy,BrC(Br)Br,10.5,,C(Br)(Br)Br,,,
50,Ethylene,InChI=1S/C2H4/c1-2/h1-2H2,Copy,C=C,10.5138,,C=C,,,
51,"Formic acid, butyl ester","InChI=1S/C5H10O2/c1-2-3-4-7-5-6/h5H,2-4H2,1H3",Copy,CCCCOC=O,10.52,,CCCCOC=O,,,
52,Butane,"InChI=1S/C4H10/c1-3-4-2/h3-4H2,1-2H3",Copy,CCCC,10.53,,CCCC,,,
53,"Formic acid, propyl ester","InChI=1S/C4H8O2/c1-2-3-6-4-5/h4H,2-3H2,1H3",Copy,CCCOC=O,10.54,,CCCOC=O,,,
54,"Methane, bromo-",InChI=1S/CH3Br/c1-2/h1H3,Copy,CBr,10.541,,CBr,,,
55,Ethylene oxide,InChI=1S/C2H4O/c1-2-3-1/h1-2H2,Copy,C1CO1,10.56,,C1CO1,,,
56,"Ethane, 1-bromo-2-chloro-",InChI=1S/C2H4BrCl/c3-1-2-4/h1-2H2,Copy,ClCCBr,10.57,,C(CBr)Cl,,,
57,"Butane, 2-chloro-","InChI=1S/C4H9Cl/c1-3-4(2)5/h4H,3H2,1-2H3",Copy,CCC(C)Cl,10.57,,CCC(C)Cl,,,
58,"Methane, dibromochloro-",InChI=1S/CHBr2Cl/c2-1(3)4/h1H,Copy,ClC(Br)Br,10.59,,C(Cl)(Br)Br,,,
59,"Propene, hexafluoro-","InChI=1S/C3F6/c4-1(2(5)6)3(7,8)9",Copy,FC(F)=C(F)C(F)(F)F,10.6,,C(=C(F)F)(C(F)(F)F)F,,,
60,"Ethyne, chloro-",InChI=1S/C2HCl/c1-2-3/h1H,Copy,C#CCl,10.6,,C#CCl,,,
61,Ethyl formate,"InChI=1S/C3H6O2/c1-2-5-3-4/h3H,2H2,1H3",Copy,CCOC=O,10.61,,CCOC=O,,,
62,"Butane, 1-chloro-","InChI=1S/C4H9Cl/c1-2-3-4-5/h2-4H2,1H3",Copy,CCCCCl,10.64,,CCCCCl,,,
63,Methylidyne,InChI=1S/CH/h1H,Copy,[CH],10.64,,,,,
64,Acetic acid,"InChI=1S/C2H4O2/c1-2(3)4/h1H3,(H,3,4)",Copy,CC(=O)O,10.65,,CC(=O)O,,,
65,Isobutane,"InChI=1S/C4H10/c1-4(2)3/h4H,1-3H3",Copy,CC(C)C,10.68,,CC(C)C,,,
66,"Propane, 1-chloro-2-methyl-","InChI=1S/C4H9Cl/c1-4(2)3-5/h4H,3H2,1-2H3",Copy,CC(C)CCl,10.73,,CC(C)CCl,,,
67,"Propane, 2-nitro-","InChI=1S/C3H7NO2/c1-3(2)4(5)6/h3H,1-2H3",Copy,CC(C)[N+](=O)[O-],10.74,,CC(C)[N+](=O)[O-],,,
68,"Methane, bromochloro-",InChI=1S/CH2BrCl/c2-1-3/h1H2,Copy,ClCBr,10.77,,C(Cl)Br,,,
69,"Propane, 1-nitro-","InChI=1S/C3H7NO2/c1-2-3-4(5)6/h2-3H2,1H3",Copy,CCC[N+](=O)[O-],10.78,,CCC[N+](=O)[O-],,,
70,"Propane, 2-chloro-","InChI=1S/C3H7Cl/c1-3(2)4/h3H,1-2H3",Copy,CC(C)Cl,10.78,,CC(C)Cl,,,
71,"Propane, 1,2-dichloro-","InChI=1S/C3H6Cl2/c1-3(5)2-4/h3H,2H2,1H3",Copy,CC(Cl)CCl,10.8,,CC(CCl)Cl,,,
72,n-Propyl chloride,"InChI=1S/C3H7Cl/c1-2-3-4/h2-3H2,1H3",Copy,CCCCl,10.8,,CCCCl,,,
73,Acetyl chloride,InChI=1S/C2H3ClO/c1-2(3)4/h1H3,Copy,CC(=O)Cl,10.82,,CC(=O)Cl,,,
74,"Silane, chlorotrimethyl-","InChI=1S/C3H9ClSi/c1-5(2,3)4/h1-3H3",Copy,C[Si](C)(C)Cl,10.83,,C[Si](C)(C)Cl,,,
75,Methyl Alcohol,"InChI=1S/CH4O/c1-2/h2H,1H3",Copy,CO,10.84,,CO,,,
76,Formaldehyde,InChI=1S/CH2O/c1-2/h1H2,Copy,C=O,10.88,,C=O,,,
77,"Propane, 1,3-dichloro-",InChI=1S/C3H6Cl2/c4-2-1-3-5/h1-3H2,Copy,ClCCCCl,10.89,,C(CCl)CCl,,,
78,Nitrosyl chloride,InChI=1S/ClNO/c1-2-3,Copy,O=NCl,10.9,,N(=O)Cl,,,
79,"Ethane, nitro-","InChI=1S/C2H5NO2/c1-2-3(4)5/h2H2,1H3",Copy,CC[N+](=O)[O-],10.9,,CC[N+](=O)[O-],,,
80,2-Propenenitrile,"InChI=1S/C3H3N/c1-2-3-4/h2H,1H2",Copy,C=CC#N,10.91,,C=CC#N,,,
81,Dichlorine monoxide,InChI=1S/Cl2O/c1-3-2,Copy,ClOCl,10.91,,O(Cl)Cl,,,
82,Propane,"InChI=1S/C3H8/c1-3-2/h3H2,1-2H3",Copy,CCC,10.94,,CCC,,,
83,Ethyl Chloride,"InChI=1S/C2H5Cl/c1-2-3/h2H2,1H3",Copy,CCCl,10.98,,CCCl,,,
84,"Methane, dibromodifluoro-","InChI=1S/CBr2F2/c2-1(3,4)5",Copy,FC(F)(Br)Br,11.03,,C(F)(F)(Br)Br,,,
85,"Ethane, 1,1-dichloro-","InChI=1S/C2H4Cl2/c1-2(3)4/h2H,1H3",Copy,CC(Cl)Cl,11.04,,CC(Cl)Cl,,,
86,"Ethane, 1,2-dichloro-",InChI=1S/C2H4Cl2/c3-1-2-4/h1-2H2,Copy,ClCCCl,11.07,,C(CCl)Cl,,,
87,"Methane, nitro-",InChI=1S/CH3NO2/c1-2(3)4/h1H3,Copy,C[N+](=O)[O-],11.08,,C[N+](=O)[O-],,,
88,Carbonyl sulfide,InChI=1S/COS/c2-1-3,Copy,O=C=S,11.18,,C(=O)=S,,,
89,Chloromethane,InChI=1S/CH3Cl/c1-2/h1H3,Copy,CCl,11.26,,CCl,,,
90,Carbon monosulfide,InChI=1S/CS/c1-2,Copy,[C-]#[S+],11.33,,[C-]#[S+],,,
91,Formic acid,"InChI=1S/CH2O2/c2-1-3/h1H,(H,2,3)",Copy,O=CO,11.33,,C(=O)O,,,
92,Methylene chloride,InChI=1S/CH2Cl2/c2-1-3/h1H2,Copy,ClCCl,11.33,,C(Cl)Cl,,,
93,Trichloromethane,InChI=1S/CHCl3/c2-1(3)4/h1H,Copy,ClC(Cl)Cl,11.37,,C(Cl)(Cl)Cl,,,
94,Dicarbon,InChI=1S/C2/c1-2,Copy,[C+]#[C-],11.4,,C#C,,,
95,Acetylene,InChI=1S/C2H2/c1-2/h1-2H,Copy,C#C,11.4,,C#C,,,
96,Bromotrifluoromethane,"InChI=1S/CBrF3/c2-1(3,4)5",Copy,FC(F)(F)Br,11.4,,C(F)(F)(F)Br,,,
97,"Methylene, difluoro-",InChI=1S/CF2/c2-1-3,Copy,F[C-]=[F+],11.44,,,,,
98,Carbon Tetrachloride,"InChI=1S/CCl4/c2-1(3,4)5",Copy,ClC(Cl)(Cl)Cl,11.47,,C(Cl)(Cl)(Cl)Cl,,,
99,Thiazyl fluoride,InChI=1S/C3H2FNS/c4-3-5-1-2-6-3/h1-2H,Copy,Fc1nccs1,11.51,,N#SF,,,
100,Ethane,InChI=1S/C2H6/c1-2/h1-2H3,Copy,CC,11.52,,CC,,,
101,"2-Propanone, 1,1,1,3,3,3-hexafluoro-","InChI=1S/C3F6O/c4-2(5,6)1(10)3(7,8)9",Copy,O=C(C(F)(F)F)C(F)(F)F,11.57,,C(=O)(C(F)(F)F)C(F)(F)F,,,
102,Isocyanic acid,InChI=1S/CHNO/c2-1-3/h2H,Copy,N=C=O,11.595,,C(=N)=O,,,
103,Ethynyl radical,InChI=1S/C2H/c1-2/h1H,Copy,[C]#C,11.61,,C#[C],,,
104,Propiolonitrile,InChI=1S/C3HN/c1-2-3-4/h1H,Copy,C#CC#N,11.62,,C#CC#N,,,
105,Trichloromonofluoromethane,"InChI=1S/CCl3F/c2-1(3,4)5",Copy,FC(Cl)(Cl)Cl,11.68,,C(F)(Cl)(Cl)Cl,,,
106,Isocyanato radical,InChI=1S/CNO/c2-1-3,Copy,N#C[O],11.76,,C(=[N])=O,,,
107,Propanenitrile,"InChI=1S/C3H5N/c1-2-3-4/h2H2,1H3",Copy,CCC#N,11.85,,CCC#N,,,
108,"Ethane, 1,1-difluoro-","InChI=1S/C2H4F2/c1-2(3)4/h2H,1H3",Copy,CC(F)F,11.865,,CC(F)F,,,
109,Dichlorodifluoromethane,"InChI=1S/CCl2F2/c2-1(3,4)5",Copy,FC(F)(Cl)Cl,12.0,,C(F)(F)(Cl)Cl,,,
110,Acetonitrile,InChI=1S/C2H3N/c1-2-3/h1H3,Copy,CC#N,12.2,,CC#N,,,
111,Difluorochloromethane,InChI=1S/CHClF2/c2-1(3)4/h1H,Copy,FC(F)Cl,12.28,,C(F)(F)Cl,,,
112,Cyanogen chloride,InChI=1S/CClN/c2-1-3,Copy,N#CCl,12.36,,C(#N)Cl,,,
113,Methyl fluoride,InChI=1S/CH3F/c1-2/h1H3,Copy,CF,12.5,,CF,,,
114,Chlorotrifluoromethane,"InChI=1S/CClF3/c2-1(3,4)5",Copy,FC(F)(F)Cl,12.6,,C(F)(F)(F)Cl,,,
115,Methane,InChI=1S/CH4/h1H4,Copy,C,12.61,,C,,,
116,Propanedinitrile,InChI=1S/C3H2N2/c4-2-1-3-5/h1H2,Copy,N#CCC#N,12.8,,C(C#N)C#N,,,
117,Carbonic difluoride,InChI=1S/CF2O/c2-1(3)4,Copy,O=C(F)F,13.04,,C(=O)(F)F,,,
118,Hydrogen cyanide,InChI=1S/CHN/c1-2/h1H,Copy,C#N,13.6,,C#N,,,
119,Carbon dioxide,InChI=1S/CO2/c2-1-3,Copy,O=C=O,13.777,,C(=O)=O,,,
120,"Acetonitrile, trifluoro-","InChI=1S/C2F3N/c3-2(4,5)1-6",Copy,N#CC(F)(F)F,13.93,,C(#N)C(F)(F)F,,,
121,Carbon monoxide,InChI=1S/CO/c1-2,Copy,[C-]#[O+],14.014,,[C-]#[O+],,,
122,Pentacene,InChI=1S/C22H14/c1-2-6-16-10-20-14-22-12-18-8-4-3-7-17(18)11-21(22)13-19(20)9-15(16)5-1/h1-14H,Copy,c1ccc2cc3cc4cc5ccccc5cc4cc3cc2c1,6.63,,C1=CC=C2C=C3C=C4C=C5C=CC=CC5=CC4=CC3=CC2=C1,,,
123,"1,4-Benzenediamine","InChI=1S/C6H8N2/c7-5-1-2-6(8)4-3-5/h1-4H,7-8H2",Copy,Nc1ccc(N)cc1,6.87,,C1=CC(=CC=C1N)N,,,
124,"Benzenamine, N,N,4-trimethyl-","InChI=1S/C9H13N/c1-8-4-6-9(7-5-8)10(2)3/h4-7H,1-3H3",Copy,Cc1ccc(N(C)C)cc1,6.93,,CC1=CC=C(C=C1)N(C)C,,,
125,Benz[a]anthracene,InChI=1S/C18H12/c1-2-7-15-12-18-16(11-14(15)6-1)10-9-13-5-3-4-8-17(13)18/h1-12H,Copy,c1ccc2cc3c(ccc4ccccc43)cc2c1,"7.45,7.60",,C1=CC=C2C(=C1)C=CC3=CC4=CC=CC=C4C=C32,,,
126,o-Toluidine,"InChI=1S/C7H9N/c1-6-4-2-3-5-7(6)8/h2-5H,8H2,1H3",Copy,Cc1ccccc1N,7.47,,CC1=CC=CC=C1N,,,
127,Picene,InChI=1S/C22H14/c1-3-7-17-15(5-1)9-11-21-19(17)13-14-20-18-8-4-2-6-16(18)10-12-22(20)21/h1-14H,Copy,c1ccc2c(c1)ccc1c2ccc2c3ccccc3ccc21,7.51,,C1=CC=C2C(=C1)C=CC3=C2C=CC4=C3C=CC5=CC=CC=C54,,,
128,"Indole, 3-methyl-","InChI=1S/C9H9N/c1-7-6-10-9-5-3-2-4-8(7)9/h2-6,10H,1H3",Copy,Cc1c[nH]c2ccccc12,7.514,,CC1=CNC2=CC=CC=C12,,,
129,Triethylamine,"InChI=1S/C6H15N/c1-4-7(5-2)6-3/h4-6H2,1-3H3",Copy,CCN(CC)CC,7.53,,CCN(CC)CC,,,
130,"Benzenamine, 3-methyl-","InChI=1S/C7H9N/c1-6-3-2-4-7(8)5-6/h2-5H,8H2,1H3",Copy,Cc1cccc(N)c1,7.54,,CC1=CC(=CC=C1)N,,,
131,"Benzene, 1,4-dimethoxy-","InChI=1S/C8H10O2/c1-9-7-3-5-8(10-2)6-4-7/h3-6H,1-2H3",Copy,COc1ccc(OC)cc1,7.56,,COC1=CC=C(C=C1)OC,,,
132,Biphenylene,InChI=1S/C12H8/c1-2-6-10-9(5-1)11-7-3-4-8-12(10)11/h1-8H,Copy,c1ccc2c(c1)-c1ccccc1-2,7.58,,C1=CC2=C3C=CC=CC3=C2C=C1,,,
133,"1,2-Ethanediamine, N,N,N',N'-tetramethyl-","InChI=1S/C6H16N2/c1-7(2)5-6-8(3)4/h5-6H2,1-4H3",Copy,CN(C)CCN(C)C,7.59,,CN(C)CCN(C)C,,,
134,Dibenzo-p-dioxin,InChI=1S/C12H8O2/c1-2-6-10-9(5-1)13-11-7-3-4-8-12(11)14-10/h1-8H,Copy,c1ccc2c(c1)Oc1ccccc1O2,7.598,,C1=CC=C2C(=C1)OC3=CC=CC=C3O2,,,
135,Chrysene,InChI=1S/C18H12/c1-3-7-15-13(5-1)9-11-18-16-8-4-2-6-14(16)10-12-17(15)18/h1-12H,Copy,c1ccc2c(c1)ccc1c3ccccc3ccc21,"7.6,8.0",,C1=CC=C2C(=C1)C=CC3=C2C=CC4=CC=CC=C43,,,
136,(E)-Stilbene,InChI=1S/C14H12/c1-3-7-13(8-4-1)11-12-14-9-5-2-6-10-14/h1-12H/b12-11+,Copy,C(=C/c1ccccc1)\c1ccccc1,7.656,,C1=CC=C(C=C1)/C=C/C2=CC=CC=C2,,,
137,"1H-Indole, 2-methyl-","InChI=1S/C9H9N/c1-7-6-8-4-2-3-5-9(8)10-7/h2-6,10H,1H3",Copy,Cc1cc2ccccc2[nH]1,7.671,,CC1=CC2=CC=CC=C2N1,,,
138,"Benzenemethanamine, N,N-dimethyl-","InChI=1S/C9H13N/c1-10(2)8-9-6-4-3-5-7-9/h3-7H,8H2,1-2H3",Copy,CN(C)Cc1ccccc1,7.69,,CN(C)CC1=CC=CC=C1,,,
139,"Hydrazine, methyl-","InChI=1S/CH6N2/c1-3-2/h3H,2H2,1H3",Copy,CNN,7.7,,CNN,,,
140,"1H-Indole, 7-methyl-","InChI=1S/C9H9N/c1-7-3-2-4-8-5-6-10-9(7)8/h2-6,10H,1H3",Copy,Cc1cccc2cc[nH]c12,7.714,,CC1=C2C(=CC=C1)C=CN2,,,
141,Aniline,"InChI=1S/C6H7N/c7-6-4-2-1-3-5-6/h1-5H,7H2",Copy,Nc1ccccc1,7.72,,C1=CC=C(C=C1)N,,,
142,"Methanediamine, N,N,N',N'-tetramethyl-","InChI=1S/C5H14N2/c1-6(2)5-7(3)4/h5H2,1-4H3",Copy,CN(C)CN(C)C,7.74,,CN(C)CN(C)C,,,
143,Acenaphthene,"InChI=1S/C12H10/c1-3-9-4-2-6-11-8-7-10(5-1)12(9)11/h1-6H,7-8H2",Copy,c1cc2c3c(cccc3c1)CC2,7.75,,C1CC2=CC=CC3=C2C1=CC=C3,,,
144,1-Naphthalenol,"InChI=1S/C10H8O/c11-10-7-3-5-8-4-1-2-6-9(8)10/h1-7,11H",Copy,Oc1cccc2ccccc12,7.76,,C1=CC=C2C(=C1)C=CC=C2O,,,
145,Indole,"InChI=1S/C8H7N/c1-2-4-8-7(3-1)5-6-9-8/h1-6,9H",Copy,c1ccc2[nH]ccc2c1,7.7602,,C1=CC=C2C(=C1)C=CN2,,,
146,p-Terphenyl,InChI=1S/C18H14/c1-3-7-15(8-4-1)17-11-13-18(14-12-17)16-9-5-2-6-10-16/h1-14H,Copy,c1ccc(-c2ccc(-c3ccccc3)cc2)cc1,7.8,,C1=CC=C(C=C1)C2=CC=C(C=C2)C3=CC=CC=C3,,,
147,Diphenyl sulfide,InChI=1S/C12H10S/c1-3-7-11(8-4-1)13-12-9-5-2-6-10-12/h1-10H,Copy,c1ccc(Sc2ccccc2)cc1,7.85,,C1=CC=C(C=C1)SC2=CC=CC=C2,,,
148,"Methylamine, N,N-dimethyl-",InChI=1S/C3H9N/c1-4(2)3/h1-3H3,Copy,CN(C)C,7.85,,CN(C)C,,,
149,"Benzene, hexamethyl-",InChI=1S/C12H18/c1-7-8(2)10(4)12(6)11(5)9(7)3/h1-6H3,Copy,Cc1c(C)c(C)c(C)c(C)c1C,7.85,,CC1=C(C(=C(C(=C1C)C)C)C)C,,,
150,2-Naphthalenol,"InChI=1S/C10H8O/c11-10-6-5-8-3-1-2-4-9(8)7-10/h1-7,11H",Copy,Oc1ccc2ccccc2c1,7.87,,C1=CC=C2C=C(C=CC2=C1)O,,,
151,Triphenylene,InChI=1S/C18H12/c1-2-8-14-13(7-1)15-9-3-4-11-17(15)18-12-6-5-10-16(14)18/h1-12H,Copy,c1ccc2c(c1)c1ccccc1c1ccccc21,7.87,,C1=CC=C2C(=C1)C3=CC=CC=C3C4=CC=CC=C24,,,
152,Phenanthrene,InChI=1S/C14H10/c1-3-7-13-11(5-1)9-10-12-6-2-4-8-14(12)13/h1-10H,Copy,c1ccc2c(c1)ccc1ccccc12,7.891,,C1=CC=C2C(=C1)C=CC3=CC=CC=C32,,,
153,"Benzene, 1-methoxy-4-methyl-","InChI=1S/C8H10O/c1-7-3-5-8(9-2)6-4-7/h3-6H,1-2H3",Copy,COc1ccc(C)cc1,7.9,,CC1=CC=C(C=C1)OC,,,
154,2-Methylpiperidine,"InChI=1S/C6H13N/c1-6-4-2-3-5-7-6/h6-7H,2-5H2,1H3",Copy,CC1CCCCN1,7.9,,CC1CCCCN1,,,
155,Fluoranthene,InChI=1S/C16H10/c1-2-8-13-12(7-1)14-9-3-5-11-6-4-10-15(13)16(11)14/h1-10H,Copy,c1ccc2c(c1)-c1cccc3cccc-2c13,7.9,,C1=CC=C2C(=C1)C3=CC=CC4=C3C2=CC=C4,,,
156,Fluorene,"InChI=1S/C13H10/c1-3-7-12-10(5-1)9-11-6-2-4-8-13(11)12/h1-8H,9H2",Copy,c1ccc2c(c1)Cc1ccccc1-2,7.91,,C1C2=CC=CC=C2C3=CC=CC=C31,,,
157,"Naphthalene, 2-methyl-","InChI=1S/C11H10/c1-9-6-7-10-4-2-3-5-11(10)8-9/h2-8H,1H3",Copy,Cc1ccc2ccccc2c1,7.91,,CC1=CC2=CC=CC=C2C=C1,,,
158,"Benzene, (methylthio)-","InChI=1S/C7H8S/c1-8-7-5-3-2-4-6-7/h2-6H,1H3",Copy,CSc1ccccc1,7.94,,CSC1=CC=CC=C1,,,
159,Hydroquinone,"InChI=1S/C6H6O2/c7-5-1-2-6(8)4-3-5/h1-4,7-8H",Copy,Oc1ccc(O)cc1,7.94,,C1=CC(=CC=C1O)O,,,
160,Diphenylacetylene,InChI=1S/C14H10/c1-3-7-13(8-4-1)11-12-14-9-5-2-6-10-14/h1-10H,Copy,C(#Cc1ccccc1)c1ccccc1,7.94,,C1=CC=C(C=C1)C#CC2=CC=CC=C2,,,
161,Perylene,InChI=1S/C20H12/c1-5-13-6-2-11-17-18-12-4-8-14-7-3-10-16(20(14)18)15(9-1)19(13)17/h1-12H,Copy,c1cc2cccc3c4cccc5cccc(c(c1)c23)c54,6.96,,C1=CC2=C3C(=C1)C4=CC=CC5=C4C(=CC=C5)C3=CC=C2,,,
162,Naphthacene,InChI=1S/C18H12/c1-2-6-14-10-18-12-16-8-4-3-7-15(16)11-17(18)9-13(14)5-1/h1-12H,Copy,c1ccc2cc3cc4ccccc4cc3cc2c1,6.97,,C1=CC=C2C=C3C=C4C=CC=CC4=CC3=CC2=C1,,,
163,"N,N-Diethylaniline","InChI=1S/C10H15N/c1-3-11(4-2)10-8-6-5-7-9-10/h5-9H,3-4H2,1-2H3",Copy,CCN(CC)c1ccccc1,6.98,,CCN(CC)C1=CC=CC=C1,,,
164,2-Naphthalenamine,"InChI=1S/C10H9N/c11-10-6-5-8-3-1-2-4-9(8)7-10/h1-7H,11H2",Copy,Nc1ccc2ccccc2c1,7.1,,C1=CC=C2C=C(C=CC2=C1)N,,,
165,"Benzenamine, N,N-dimethyl-","InChI=1S/C8H11N/c1-9(2)8-6-4-3-5-7-8/h3-7H,1-2H3",Copy,CN(C)c1ccccc1,7.12,,CN(C)C1=CC=CC=C1,,,
166,Benzo[a]pyrene,InChI=1S/C20H12/c1-2-7-17-15(4-1)12-16-9-8-13-5-3-6-14-10-11-18(17)20(16)19(13)14/h1-12H,Copy,c1ccc2c(c1)cc1ccc3cccc4ccc2c1c34,7.12,,C1=CC=C2C3=C4C(=CC2=C1)C=CC5=C4C(=CC=C5)C=C3,,,
167,Benzo[ghi]perylene,InChI=1S/C22H12/c1-3-13-7-9-15-11-12-16-10-8-14-4-2-6-18-17(5-1)19(13)21(15)22(16)20(14)18/h1-12H,Copy,c1cc2ccc3ccc4ccc5cccc6c(c1)c2c3c4c56,7.17,,C1=CC2=C3C(=C1)C4=CC=CC5=C4C6=C(C=C5)C=CC(=C36)C=C2,,,
168,Diphenylamine,"InChI=1S/C12H11N/c1-3-7-11(8-4-1)13-12-9-5-2-6-10-12/h1-10,13H",Copy,c1ccc(Nc2ccccc2)cc1,7.19,,C1=CC=C(C=C1)NC2=CC=CC=C2,,,
169,Benzyl radical,"InChI=1S/C7H7/c1-7-5-3-2-4-6-7/h2-6H,1H2",Copy,C=C1[CH]C=CC=C1,7.242,,[CH2]C1=CC=CC=C1,,,
170,Coronene,InChI=1S/C24H12/c1-2-14-5-6-16-9-11-18-12-10-17-8-7-15-4-3-13(1)19-20(14)22(16)24(18)23(17)21(15)19/h1-12H,Copy,c1cc2ccc3ccc4ccc5ccc6ccc1c1c2c3c4c5c61,7.29,,C1=CC2=C3C4=C1C=CC5=C4C6=C(C=C5)C=CC7=C6C3=C(C=C2)C=C7,,,
171,"Hydrazine, 1,1-dimethyl-","InChI=1S/C2H8N2/c1-4(2)3/h3H2,1-2H3",Copy,CN(C)N,7.29,,CN(C)N,,,
172,"Benzaldehyde, 4-(dimethylamino)-","InChI=1S/C9H11NO/c1-10(2)9-5-3-8(7-11)4-6-9/h3-7H,1-2H3",Copy,CN(C)c1ccc(C=O)cc1,7.3,,CN(C)C1=CC=C(C=C1)C=O,,,
173,"Aniline, N-methyl-","InChI=1S/C7H9N/c1-8-7-5-3-2-4-6-7/h2-6,8H,1H3",Copy,CNc1ccccc1,7.32,,CNC1=CC=CC=C1,,,
174,Triethylenediamine,InChI=1S/C6H12N2/c1-2-8-5-3-7(1)4-6-8/h1-6H2,Copy,C1CN2CCN1CC2,7.321,,C1CN2CCN1CC2,,,
175,"2,6-Xylidine","InChI=1S/C8H11N/c1-6-4-3-5-7(2)8(6)9/h3-5H,9H2,1-2H3",Copy,Cc1cccc(C)c1N,7.33,,CC1=C(C(=CC=C1)C)N,,,
176,"Dibenz[a,h]anthracene",InChI=1S/C22H14/c1-3-7-19-15(5-1)9-11-17-14-22-18(13-21(17)19)12-10-16-6-2-4-8-20(16)22/h1-14H,Copy,c1ccc2c(c1)ccc1cc3c(ccc4ccccc43)cc12,7.39,,C1=CC=C2C(=C1)C=CC3=CC4=C(C=CC5=CC=CC=C54)C=C32,,,
177,"Disulfide, dimethyl",InChI=1S/C2H6S2/c1-3-4-2/h1-2H3,Copy,CSSC,7.4,,CSSC,,,
178,Azulene,InChI=1S/C10H8/c1-2-5-9-7-4-8-10(9)6-3-1/h1-8H,Copy,c1ccc2cccc-2cc1,7.42,,C1=CC=C2C=CC=C2C=C1,,,
179,"Benzenamine, N,N,2-trimethyl-","InChI=1S/C9H13N/c1-8-6-4-5-7-9(8)10(2)3/h4-7H,1-3H3",Copy,Cc1ccccc1N(C)C,7.42,,CC1=CC=CC=C1N(C)C,,,
180,Pyrene,InChI=1S/C16H10/c1-3-11-7-9-13-5-2-6-14-10-8-12(4-1)15(11)16(13)14/h1-10H,Copy,c1cc2ccc3cccc4ccc(c1)c2c34,7.426,,C1=CC2=C3C(=C1)C=CC4=CC=CC(=C43)C=C2,,,
181,Anthracene,InChI=1S/C14H10/c1-2-6-12-10-14-8-4-3-7-13(14)9-11(12)5-1/h1-10H,Copy,c1ccc2cc3ccccc3cc2c1,7.439,,C1=CC=C2C=C3C=CC=CC3=CC2=C1,,,
182,"Naphthalene, 1-methyl-","InChI=1S/C11H10/c1-9-5-4-7-10-6-2-3-8-11(9)10/h2-8H,1H3",Copy,Cc1cccc2ccccc12,7.96,,CC1=CC=CC2=CC=CC=C12,,,
183,o-Terphenyl,InChI=1S/C18H14/c1-3-9-15(10-4-1)17-13-7-8-14-18(17)16-11-5-2-6-12-16/h1-14H,Copy,c1ccc(-c2ccccc2-c2ccccc2)cc1,7.99,,C1=CC=C(C=C1)C2=CC=CC=C2C3=CC=CC=C3,,,
184,m-Terphenyl,InChI=1S/C18H14/c1-3-8-15(9-4-1)17-12-7-13-18(14-17)16-10-5-2-6-11-16/h1-14H,Copy,c1ccc(-c2cccc(-c3ccccc3)c2)cc1,8.02,,C1=CC=C(C=C1)C2=CC(=CC=C2)C3=CC=CC=C3,,,
185,Piperidine,"InChI=1S/C5H11N/c1-2-4-6-5-3-1/h6H,1-5H2",Copy,C1CCNCC1,8.03,,C1CCNCC1,,,
186,"Benzene, 1,2,4,5-tetramethyl-","InChI=1S/C10H14/c1-7-5-9(3)10(4)6-8(7)2/h5-6H,1-4H3",Copy,Cc1cc(C)c(C)cc1C,8.06,,CC1=CC(=C(C=C1C)C)C,,,
187,"Naphthalene, 1-bromo-",InChI=1S/C10H7Br/c11-10-7-3-5-8-4-1-2-6-9(8)10/h1-7H,Copy,Brc1cccc2ccccc12,8.08,,C1=CC=C2C(=C1)C=CC=C2Br,,,
188,Trichloromethyl radical,InChI=1S/CCl3/c2-1(3)4,Copy,Cl[C](Cl)Cl,8.109,,[C](Cl)(Cl)Cl,,,
189,Acenaphthylene,InChI=1S/C12H8/c1-3-9-4-2-6-11-8-7-10(5-1)12(9)11/h1-8H,Copy,C1=Cc2cccc3cccc1c23,8.12,,C1=CC2=C3C(=C1)C=CC3=CC=C2,,,